<?xml version="1.0"?>
<VTKFile type="UnstructuredGrid" version="0.1" byte_order="LittleEndian" compressor="vtkZLibDataCompressor">
<trisurfversion>Trisurf (commit ), compiled on Aug  2 2022 16:20:21</trisurfversion>
<dumpdate>Tue Aug  2 16:31:51 2022
</dumpdate>
<tape>####### Vesicle definitions ###########
# nshell is a number of divisions of dipyramid
nshell=17
# dmax is the max. bond length (in units l_min)
dmax=1.7
# dmin_interspecies in the min. dist. between different vertex species (in units l_min)
dmin_interspecies=1.2
# bending rigidity of the membrane (in units kT)
xk0=20.0
# max step size (in units l_min)
stepsize=0.15

# Pressure calculations
# (pswitch=1: calc. p*dV energy contribution)
pswitch = 0
# pressure difference: p_inside - p_outside (in units kT/l_min^3):
pressure=0.1

#Constant volume constraint (0 disable constant volume, 1 enable wiht additional vertex move, 2 enable with epsvol)
constvolswitch=0
constvolprecision=1e-14

#Constant area constraint (0 disable constant area, 2 enable constant area with epsarea)
constareaswitch=0


#Stretching
stretchswitch=0
xkA0=0.0

####### Polymer (brush) definitions ###########
# npoly is a number of polymers attached to npoly distinct vertices on vesicle
npoly=0
# nmono is a number of monomers in each polymer
nmono=20
# Spring constant between monomers of the polymer
k_spring=800
#set to 1 if half of the polymeres are inside the vesicle
internal_poly=0

####### Filament (inside the vesicle) definitions ###########
# nfil is a number of filaments inside the vesicle
nfil=0
# nfono is a number of monomers in each filament
nfono=3
# Persistence lenght of the filaments (in units l_min)
xi=100

####### Nucleus (inside the vesicle) ###########
# Radius of an impenetrable hard sphere inside the vesicle
R_nucleus=0
R_nucleusX=0
R_nucleusY=0
R_nucleusZ=0
#######  Cell definitions ############
nxmax=100
nymax=100
nzmax=100


####### Program Control ############
#how many MC sweeps between subsequent records of states to disk
#200000
mcsweeps=2000
#how many initial mcsweeps*inititer MC sweeps before recording to disk?
#2
inititer=0
#how many records do you want on the disk iteration are there in a run?
#10000
iterations=10


###### Spherical harmonics ###########
# If 0 then spherical harmonics are not calculated at all.
spherical_harmonics_coefficients=21

#shut up if we are using cluster!!!
quiet=false
 


#what type of multiprocessing? (*none, smp, cluster, distributed, cuda, auto)
#currently only none makes sense.
multiprocessing=none
#how many cores are allowed to process in SMP?
smp_cores=2
#how many nodes in cluster?
cluster_nodes=50
#max number of processes in distributed (voluntary) environment
distributed_processes=50
#cuda options???


#number of vertices with spontaneous curvature (integer)
number_of_vertices_with_c0=100
#c0/2 is spontaneous curvature. c0 is used as (c1+c1-c0)^2 in energy term (float)
c0=1.0
#energy of attraction of vertices with spontaneous curvature (float, positive value for attraction)
w=1.0
#direct force on vesicles with spontaneous curvature (float)
F=0.5
# direct force noise_switch
F_noise_switch=1
#F_noise_mean=0.5
F_noise_SD=0.1

#plane confinement; two plates between the substrate-vesicle system, upper plate in moving downwards untill plan_d, lower plate is stationary
plane_confinement_switch=0
#final plane distance (float in lmin)
plane_d=10
#plane to vesicle repulsion force while closing
plane_F=1.0

#some important parameters
#which type of adhesion model do you want; step_potential (1), parabolic potential (2) , for shperical surface with step potential (3), for cylindrical (along y-axis) surface with step potential (4)
#cylinder along x-axis, choose (5)
type_of_adhesion_model=1
#do you want to see any crawling motion on x-y plane, then choose 1, 0 otherwise; only for flate and cylindrical substrate 
allow_xy_plane_movement=0
#in active case, we need to apply an external force in the z-direction for overall force balance along z-direction, choose 1 if you want this, 0 otherwise
force_balance_along_z_axis=0


#Adhesion
adhesion_switch=1
#potential range (float in lmin)
adhesion_cuttoff=1
#adhesion energy per unit area or per vertex
adhesion_strength=3.0
#radius of the sphere or cylinder; for a flate substarte, choose it to be zero
adhesion_radius=0.0
#position of the adhesive surface
z_adhesion= -10.72493
#choose z_adhesion depending on nshell
#17, -10.724914687230324 
#18, -11.355792021773285 
#19, -11.986669356316245 
#20, -12.617546690859205 
#25, -15.771933363574005 
#27, -17.033688032659928 
#29, -18.29544270174585 
#31, -19.55719737083177 
#33, -20.818952039917686 



# Shear force at each point Fx=az+b
shear_switch=1
a=0.01
b=0.
nx=1
ny=1


</tape>
<trisurf nvtx="1447" npoly="0" nmono="0" compressed="false">
<tria>0 3 13 1 18 34 66 26 25 13 3 4 14 15 1 2 9 21 101 72 134 15 32 7 30 15 14 20 37 17 17 18 20 59 61 36 17 9 34 21 22 10 25 41 10 74 49 28 14 0 13 3 0 2 44 97 24 14 5 30 52 50 31 9 39 21 27 5 14 30 50 6 78 51 16 18 7 33 18 17 34 33 19 18 41 2 21 8 39 9 22 21 39 91 22 40 119 89 122 43 25 10 64 126 43 12 66 93 169 212 67 1 0 14 13 4 27 25 26 41 47 72 49 46 133 99 74 30 5 52 78 16 45 5 27 15 7 1 139 48 105 32 53 33 6 15 30 2 0 34 56 19 35 7 18 1 9 2 34 115 114 81 8 17 37 57 36 8 154 60 117 2 41 3 59 36 60 61 22 39 26 4 3 86 122 87 121 160 90 91 43 10 40 22 61 63 64 91 66 11 65 3 41 26 95 128 127 4 12 44 45 47 49 131 97 44 101 29 72 0 1 34 49 72 28 47 45 68 6 50 52 74 5 49 14 13 27 32 51 53 74 28 73 104 75 77 111 51 80 52 75 78 54 53 111 16 32 15 7 32 33 19 20 18 56 37 20 113 81 114 51 111 53 57 58 116 58 37 56 55 111 110 56 35 83 117 85 84 9 17 8 38 116 58 37 57 8 88 23 118 23 42 91 10 41 21 123 63 90 42 23 121 124 125 94 63 91 42 4 44 24 94 125 165 42 90 63 11 94 65 12 67 44 169 93 96 27 24 45 24 97 45 68 131 98 27 4 24 100 46 172 5 45 49 71 101 102 28 29 73 325 176 135 269 219 175 77 31 139 139 73 103 30 74 50 272 177 137 109 75 104 31 77 75 52 16 6 52 31 75 80 78 109 32 16 51 35 55 113 80 109 145 75 109 78 54 35 19 54 55 35 53 19 33 36 116 60 110 111 79 58 57 37 152 239 151 190 150 149 83 38 58 117 195 154 58 56 83 59 118 61 121 88 62 86 59 60 91 40 23 89 121 62 87 118 59 8 36 39 63 162 64 43 126 25 11 25 126 42 121 90 125 124 92 65 93 66 96 130 169 127 165 95 124 162 92 68 45 97 131 44 67 68 97 131 12 26 66 132 98 212 174 173 217 175 136 268 47 68 69 70 100 134 69 100 70 47 70 72 134 136 101 103 48 139 178 77 105 102 101 136 29 101 71 53 54 19 76 108 104 143 179 140 229 228 230 140 230 143 225 142 106 76 104 77 108 76 179 104 108 109 187 79 232 109 108 145 148 150 190 79 111 80 82 83 114 110 187 146 115 82 114 20 19 56 83 35 114 36 57 116 85 82 239 38 82 85 84 85 153 85 117 38 116 38 117 86 60 154 59 86 87 87 88 118 197 86 154 88 87 62 122 89 62 199 89 119 120 89 199 120 121 89 22 91 10 118 40 61 159 202 251 121 23 88 125 92 206 124 126 64 252 162 123 96 93 65 127 128 96 205 206 92 166 167 95 167 128 95 129 130 128 129 210 168 93 67 12 134 72 70 131 67 212 69 46 100 69 98 133 96 128 130 261 170 132 72 29 28 172 217 173 173 218 268 70 47 69 221 102 135 71 102 221 138 48 221 138 137 177 71 103 29 105 223 178 48 71 221 73 139 31 230 140 229 274 329 389 178 106 76 182 183 276 139 105 77 107 140 179 145 79 80 186 230 184 145 143 186 179 143 108 6 16 15 145 232 79 188 146 234 140 107 229 192 115 81 234 147 150 234 150 112 287 189 149 113 55 188 112 81 188 114 35 113 150 148 192 153 239 152 82 38 83 115 151 239 117 84 195 196 197 195 40 118 23 39 36 61 244 155 197 86 155 122 157 201 158 200 199 354 120 157 160 199 157 120 160 121 120 119 122 155 161 123 159 251 304 204 204 252 161 162 63 123 123 90 159 160 159 90 206 205 207 65 94 127 207 254 206 94 165 127 164 310 166 164 163 254 210 129 167 165 163 95 4 26 12 368 258 211 167 129 128 261 132 212 65 127 96 98 131 212 133 46 69 261 212 169 172 99 217 171 132 170 99 171 216 68 98 69 176 137 221 174 217 319 175 268 269 103 71 48 220 325 385 48 138 105 180 327 273 73 50 74 31 50 73 103 73 29 179 142 107 105 138 223 76 77 178 142 179 106 181 141 224 275 181 224 142 225 141 183 229 107 186 184 144 279 281 184 232 144 187 78 80 51 54 111 55 232 145 186 184 281 144 146 188 55 147 234 233 282 185 231 151 193 152 81 112 192 189 235 191 113 188 81 112 188 234 193 151 194 149 285 341 237 191 288 239 82 115 115 192 151 151 148 194 348 243 242 194 238 193 116 117 60 292 84 153 244 197 196 195 197 154 155 156 119 296 297 198 157 203 160 159 160 203 87 122 62 200 157 199 119 299 199 248 158 201 421 360 250 248 250 302 248 358 357 202 203 158 161 251 204 66 25 11 252 92 162 162 124 64 253 204 304 91 64 43 207 257 254 124 11 126 95 163 166 364 428 365 257 207 426 168 260 130 164 166 163 433 312 372 67 93 169 169 130 261 168 313 213 374 214 213 216 264 99 375 316 262 316 214 374 133 171 99 214 171 170 98 132 133 174 378 265 100 268 134 99 172 46 320 381 266 173 268 100 175 135 102 136 134 268 136 175 102 176 325 220 220 137 176 272 222 270 178 180 106 327 387 329 273 224 225 180 273 225 106 180 225 327 223 177 389 521 523 331 393 394 183 227 276 226 390 275 182 278 333 277 276 227 277 227 141 460 393 459 283 339 336 394 393 460 333 228 229 143 145 108 185 282 187 282 234 146 234 282 233 112 150 192 110 146 55 194 148 191 339 285 233 235 288 191 236 235 189 236 403 235 288 289 237 346 290 289 404 406 622 239 153 85 289 290 237 237 194 191 241 242 153 196 195 292 148 151 192 294 196 243 153 242 292 196 292 243 193 241 152 84 292 195 155 86 197 294 295 244 248 302 158 297 296 353 201 358 248 357 301 250 157 200 201 355 298 354 157 158 203 159 203 202 119 156 299 202 303 251 202 158 302 298 358 200 305 255 253 161 252 123 425 306 426 208 254 257 254 163 206 205 253 207 253 205 204 125 163 165 254 208 164 209 167 166 258 311 369 368 209 311 307 428 309 209 368 210 168 210 211 259 313 211 133 132 171 261 130 260 261 260 170 437 262 315 215 214 316 215 216 214 318 215 263 168 130 129 264 215 318 440 441 319 99 264 217 215 264 216 320 266 323 264 319 217 265 218 173 173 174 265 383 516 44
[...]
<PointData Scalars="vertices_idx">
<DataArray type="Int64" Name="vertices_idx" format="ascii">0 1 2 3 4 5 6 7 8 9 10 11 12 13 14 15 16 17 18 19 20 21 22 23 24 25 26 27 28 29 30 31 32 33 34 35 36 37 38 39 40 41 42 43 44 45 46 47 48 49 50 51 52 53 54 55 56 57 58 59 60 61 62 63 64 65 66 67 68 69 70 71 72 73 74 75 76 77 78 79 80 81 82 83 84 85 86 87 88 89 90 91 92 93 94 95 96 97 98 99 100 101 102 103 104 105 106 107 108 109 110 111 112 113 114 115 116 117 118 119 120 121 122 123 124 125 126 127 128 129 130 131 132 133 134 135 136 137 138 139 140 141 142 143 144 145 146 147 148 149 150 151 152 153 154 155 156 157 158 159 160 161 162 163 164 165 166 167 168 169 170 171 172 173 174 175 176 177 178 179 180 181 182 183 184 185 186 187 188 189 190 191 192 193 194 195 196 197 198 199 200 201 202 203 204 205 206 207 208 209 210 211 212 213 214 215 216 217 218 219 220 221 222 223 224 225 226 227 228 229 230 231 232 233 234 235 236 237 238 239 240 241 242 243 244 245 246 247 248 249 250 251 252 253 254 255 256 257 258 259 260 261 262 263 264 265 266 267 268 269 270 271 272 273 274 275 276 277 278 279 280 281 282 283 284 285 286 287 288 289 290 291 292 293 294 295 296 297 298 299 300 301 302 303 304 305 306 307 308 309 310 311 312 313 314 315 316 317 318 319 320 321 322 323 324 325 326 327 328 329 330 331 332 333 334 335 336 337 338 339 340 341 342 343 344 345 346 347 348 349 350 351 352 353 354 355 356 357 358 359 360 361 362 363 364 365 366 367 368 369 370 371 372 373 374 375 376 377 378 379 380 381 382 383 384 385 386 387 388 389 390 391 392 393 394 395 396 397 398 399 400 401 402 403 404 405 406 407 408 409 410 411 412 413 414 415 416 417 418 419 420 421 422 423 424 425 426 427 428 429 430 431 432 433 434 435 436 437 438 439 440 441 442 443 444 445 446 447 448 449 450 451 452 453 454 455 456 457 458 459 460 461 462 463 464 465 466 467 468 469 470 471 472 473 474 475 476 477 478 479 480 481 482 483 484 485 486 487 488 489 490 491 492 493 494 495 496 497 498 499 500 501 502 503 504 505 506 507 508 509 510 511 512 513 514 515 516 517 518 519 520 521 522 523 524 525 526 527 528 529 530 531 532 533 534 535 536 537 538 539 540 541 542 543 544 545 546 547 548 549 550 551 552 553 554 555 556 557 558 559 560 561 562 563 564 565 566 567 568 569 570 571 572 573 574 575 576 577 578 579 580 581 582 583 584 585 586 587 588 589 590 591 592 593 594 595 596 597 598 599 600 601 602 603 604 605 606 607 608 609 610 611 612 613 614 615 616 617 618 619 620 621 622 623 624 625 626 627 628 629 630 631 632 633 634 635 636 637 638 639 640 641 642 643 644 645 646 647 648 649 650 651 652 653 654 655 656 657 658 659 660 661 662 663 664 665 666 667 668 669 670 671 672 673 674 675 676 677 678 679 680 681 682 683 684 685 686 687 688 689 690 691 692 693 694 695 696 697 698 699 700 701 702 703 704 705 706 707 708 709 710 711 712 713 714 715 716 717 718 719 720 721 722 723 724 725 726 727 728 729 730 731 732 733 734 735 736 737 738 739 740 741 742 743 744 745 746 747 748 749 750 751 752 753 754 755 756 757 758 759 760 761 762 763 764 765 766 767 768 769 770 771 772 773 774 775 776 777 778 779 780 781 782 783 784 785 786 787 788 789 790 791 792 793 794 795 796 797 798 799 800 801 802 803 804 805 806 807 808 809 810 811 812 813 814 815 816 817 818 819 820 821 822 823 824 825 826 827 828 829 830 831 832 833 834 835 836 837 838 839 840 841 842 843 844 845 846 847 848 849 850 851 852 853 854 855 856 857 858 859 860 861 862 863 864 865 866 867 868 869 870 871 872 873 874 875 876 877 878 879 880 881 882 883 884 885 886 887 888 889 890 891 892 893 894 895 896 897 898 899 900 901 902 903 904 905 906 907 908 909 910 911 912 913 914 915 916 917 918 919 920 921 922 923 924 925 926 927 928 929 930 931 932 933 934 935 936 937 938 939 940 941 942 943 944 945 946 947 948 949 950 951 952 953 954 955 956 957 958 959 960 961 962 963 964 965 966 967 968 969 970 971 972 973 974 975 976 977 978 979 980 981 982 983 984 985 986 987 988 989 990 991 992 993 994 995 996 997 998 999 1000 1001 1002 1003 1004 1005 1006 1007 1008 1009 1010 1011 1012 1013 1014 1015 1016 1017 1018 1019 1020 1021 1022 1023 1024 1025 1026 1027 1028 1029 1030 1031 1032 1033 1034 1035 1036 1037 1038 1039 1040 1041 1042 1043 1044 1045 1046 1047 1048 1049 1050 1051 1052 1053 1054 1055 1056 1057 1058 1059 1060 1061 1062 1063 1064 1065 1066 1067 1068 1069 1070 1071 1072 1073 1074 1075 1076 1077 1078 1079 1080 1081 1082 1083 1084 1085 1086 1087 1088 1089 1090 1091 1092 1093 1094 1095 1096 1097 1098 1099 1100 1101 1102 1103 1104 1105 1106 1107 1108 1109 1110 1111 1112 1113 1114 1115 1116 1117 1118 1119 1120 1121 1122 1123 1124 1125 1126 1127 1128 1129 1130 1131 1132 1133 1134 1135 1136 1137 1138 1139 1140 1141 1142 1143 1144 1145 1146 1147 1148 1149 1150 1151 1152 1153 1154 1155 1156 1157 1158 1159 1160 1161 1162 1163 1164 1165 1166 1167 1168 1169 1170 1171 1172 1173 1174 1175 1176 1177 1178 1179 1180 1181 1182 1183 1184 1185 1186 1187 1188 1189 1190 1191 1192 1193 1194 1195 1196 1197 1198 1199 1200 1201 1202 1203 1204 1205 1206 1207 1208 1209 1210 1211 1212 1213 1214 1215 1216 1217 1218 1219 1220 1221 1222 1223 1224 1225 1226 1227 1228 1229 1230 1231 1232 1233 1234 1235 1236 1237 1238 1239 1240 1241 1242 1243 1244 1245 1246 1247 1248 1249 1250 1251 1252 1253 1254 1255 1256 1257 1258 1259 1260 1261 1262 1263 1264 1265 1266 1267 1268 1269 1270 1271 1272 1273 1274 1275 1276 1277 1278 1279 1280 1281 1282 1283 1284 1285 1286 1287 1288 1289 1290 1291 1292 1293 1294 1295 1296 1297 1298 1299 1300 1301 1302 1303 1304 1305 1306 1307 1308 1309 1310 1311 1312 1313 1314 1315 1316 1317 1318 1319 1320 1321 1322 1323 1324 1325 1326 1327 1328 1329 1330 1331 1332 1333 1334 1335 1336 1337 1338 1339 1340 1341 1342 1343 1344 1345 1346 1347 1348 1349 1350 1351 1352 1353 1354 1355 1356 1357 1358 1359 1360 1361 1362 1363 1364 1365 1366 1367 1368 1369 1370 1371 1372 1373 1374 1375 1376 1377 1378 1379 1380 1381 1382 1383 1384 1385 1386 1387 1388 1389 1390 1391 1392 1393 1394 1395 1396 1397 1398 1399 1400 1401 1402 1403 1404 1405 1406 1407 1408 1409 1410 1411 1412 1413 1414 1415 1416 1417 1418 1419 1420 1421 1422 1423 1424 1425 1426 1427 1428 1429 1430 1431 1432 1433 1434 1435 1436 1437 1438 1439 1440 1441 1442 1443 1444 1445 1446 </DataArray>
<DataArray type="Float64" Name="spontaneous_curvature" format="ascii">0.00000000000000000e+00 0.00000000000000000e+00 0.00000000000000000e+00 0.00000000000000000e+00 0.00000000000000000e+00 0.00000000000000000e+00 0.00000000000000000e+00 0.00000000000000000e+00 0.00000000000000000e+00 0.00000000000000000e+00 0.00000000000000000e+00 0.00000000000000000e+00 0.00000000000000000e+00 0.00000000000000000e+00 0.00000000000000000e+00 0.00000000000000000e+00 0.00000000000000000e+00 0.00000000000000000e+00 0.00000000000000000e+00 0.00000000000000000e+00 0.00000000000000000e+00 0.00000000000000000e+00 0.00000000000000000e+00 0.00000000000000000e+00 0.00000000000000000e+00 0.00000000000000000e+00 0.00000000000000000e+00 0.00000000000000000e+00 0.00000000000000000e+00 0.00000000000000000e+00 0.00000000000000000e+00 0.00000000000000000e+00 0.00000000000000000e+00 0.00000000000000000e+00 0.00000000000000000e+00 0.00000000000000000e+00 0.00000000000000000e+00 0.00000000000000000e+00 0.00000000000000000e+00 0.00000000000000000e+00 0.00000000000000000e+00 0.00000000000000000e+00 0.00000000000000000e+00 0.00000000000000000e+00 0.00000000000000000e+00 0.00000000000000000e+00 0.00000000000000000e+00 0.00000000000000000e+00 0.00000000000000000e+00 0.00000000000000000e+00 0.00000000000000000e+00 0.00000000000000000e+00 0.00000000000000000e+00 0.00000000000000000e+00 0.00000000000000000e+00 0.00000000000000000e+00 0.00000000000000000e+00 0.00000000000000000e+00 0.00000000000000000e+00 0.00000000000000000e+00 0.00000000000000000e+00 1.00000000000000000e+00 0.00000000000000000e+00 0.00000000000000000e+00 0.00000000000000000e+00 0.00000000000000000e+00 0.00000000000000000e+00 0.00000000000000000e+00 0.00000000000000000e+00 0.00000000000000000e+00 0.00000000000000000e+00 0.00000000000000000e+00 0.00000000000000000e+00 0.00000000000000000e+00 0.00000000000000000e+00 0.00000000000000000e+00 0.00000000000000000e+00 0.00000000000000000e+00 0.00000000000000000e+00 0.00000000000000000e+00 0.00000000000000000e+00 0.00000000000000000e+00 0.00000000000000000e+00 0.00000000000000000e+00 0.00000000000000000e+00 0.00000000000000000e+00 0.00000000000000000e+00 0.00000000000000000e+00 1.00000000000000000e+00 0.00000000000000000e+00 0.00000000000000000e+00 0.00000000000000000e+00 0.00000000000000000e+00 0.00000000000000000e+00 0.00000000000000000e+00 0.00000000000000000e+00 0.00000000000000000e+00 1.00000000000000000e+00 0.00000000000000000e+00 0.00000000000000000e+00 0.00000000000000000e+00 0.00000000000000000e+00 0.00000000000000000e+00 0.00000000000000000e+00 0.00000000000000000e+00 0.00000000000000000e+00 0.00000000000000000e+00 0.00000000000000000e+00 0.00000000000000000e+00 0.00000000000000000e+00 0.00000000000000000e+00 0.00000000000000000e+00 0.00000000000000000e+00 0.00000000000000000e+00 1.00000000000000000e+00 0.00000000000000000e+00 0.00000000000000000e+00 0.00000000000000000e+00 1.00000000000000000e+00 0.00000000000000000e+00 0.00000000000000000e+00 0.00000000000000000e+00 0.00000000000000000e+00 0.00000000000000000e+00 0.00000000000000000e+00 0.00000000000000000e+00 0.00000000000000000e+00 0.00000000000000000e+00 0.00000000000000000e+00 0.00000000000000000e+00 0.00000000000000000e+00 0.00000000000000000e+00 0.00000000000000000e+00 0.00000000000000000e+00 0.00000000000000000e+00 0.00000000000000000e+00 0.00000000000000000e+00 0.00000000000000000e+00 0.00000000000000000e+00 0.00000000000000000e+00 0.00000000000000000e+00 0.00000000000000000e+00 0.00000000000000000e+00 0.00000000000000000e+00 0.00000000000000000e+00 0.00000000000000000e+00 0.00000000000000000e+00 0.00000000000000000e+00 0.00000000000000000e+00 0.00000000000000000e+00 0.00000000000000000e+00 0.00000000000000000e+00 0.00000000000000000e+00 0.00000000000000000e+00 0.00000000000000000e+00 0.00000000000000000e+00 0.00000000000000000e+00 0.00000000000000000e+00 0.00000000000000000e+00 0.00000000000000000e+00 0.00000000000000000e+00 0.00000000000000000e+00 0.00000000000000000e+00 0.00000000000000000e+00 0.00000000000000000e+00 0.00000000000000000e+00 0.00000000000000000e+00 0.00000000000000000e+00 0.00000000000000000e+00 0.00000000000000000e+00 0.00000000000000000e+00 0.00000000000000000e+00 0.00000000000000000e+00 0.00000000000000000e+00 0.00000000000000000e+00 0.00000000000000000e+00 0.00000000000000000e+00 0.00000000000000000e+00 0.00000000000000000e+00 0.00000000000000000e+00 0.00000000000000000e+00 0.00000000000000000e+00 0.00000000000000000e+00 1.00000000000000000e+00 0.00000000000000000e+00 0.00000000000000000e+00 0.00000000000000000e+00 0.00000000000000000e+00 0.00000000000000000e+00 0.00000000000000000e+00 0.00000000000000000e+00 0.00000000000000000e+00 0.00000000000000000e+00 1.00000000000000000e+00 0.00000000000000000e+00 0.00000000000000000e+00 0.00000000000000000e+00 0.00000000000000000e+00 0.00000000000000000e+00 0.00000000000000000e+00 0.00000000000000000e+00 1.00000000000000000e+00 0.00000000000000000e+00 1.00000000000000000e+00 0.00000000000000000e+00 0.00000000000000000e+00 0.00000000000000000e+00 0.00000000000000000e+00 0.00000000000000000e+00 0.00000000000000000e+00 0.00000000000000000e+00 0.00000000000000000e+00 0.00000000000000000e+00 0.00000000000000000e+00 0.00000000000000000e+00 0.00000000000000000e+00 0.00000000000000000e+00 0.00000000000000000e+00 0.00000000000000000e+00 0.00000000000000000e+00 1.00000000000000000e+00 0.00000000000000000e+00 0.00000000000000000e+00 0.00000000000000000e+00 1.00000000000000000e+00 0.00000000000000000e+00 1.00000000000000000e+00 0.00000000000000000e+00 0.00000000000000000e+00 0.00000000000000000e+00 0.00000000000000000e+00 0.00000000000000000e+00 0.00000000000000000e+00 0.00000000000000000e+00 0.00000000000000000e+00 0.00000000000000000e+00 1.00000000000000000e+00 0.00000000000000000e+00 0.00000000000000000e+00 0.00000000000000000e+00 0.00000000000000000e+00 0.00000000000000000e+00 0.00000000000000000e+00 0.00000000000000000e+00 0.00000000000000000e+00 0.00000000000000000e+00 0.00000000000000000e+00 0.00000000000000000e+00 0.00000000000000000e+00 0.00000000000000000e+00 0.00000000000000000e+00 0.00000000000000000e+00 0.00000000000000000e+00 0.00000000000000000e+00 0.00000000000000000e+00 0.00000000000000000e+00 0.00000000000000000e+00 1.00000000000000000e+00 0.00000000000000000e+00 0.00000000000000000e+00 0.00000000000000000e+00 0.00000000000000000e+00 0.00000000000000000e+00 0.00000000000000000e+00 0.00000000000000000e+00 0.00000000000000000e+00 0.00000000000000000e+00 0.00000000000000000e+00 0.00000000000000000e+00 0.00000000000000000e+00 0.00000000000000000e+00 0.00000000000000000e+00 0.00000000000000000e+00 0.00000000000000000e+00 0.00000000000000000e+00 1.00000000000000000e+00 0.00000000000000000e+00 0.00000000000000000e+00 0.00000000000000000e+00 0.00000000000000000e+00 0.00000000000000000e+00 0.00000000000000000e+00 0.00000000000000000e+00 0.00000000000000000e+00 0.00000000000000000e+00 0.00000000000000000e+00 0.00000000000000000e+00 0.00000000000000000e+00 0.00000000000000000e+00 0.00000000000000000e+00 0.00000000000000000e+00 0.00000000000000000e+00 0.00000000000000000e+00 0.00000000000000000e+00 0.00000000000000000e+00 0.00000000000000000e+00 0.00000000000000000e+00 0.00000000000000000e+00 0.00000000000000000e+00 0.00000000000000000e+00 0.00000000000000000e+00 0.00000000000000000e+00 0.00000000000000000e+00 0.00000000000000000e+00 0.00000000000000000e+00 0.00000000000000000e+00 0.00000000000000000e+00 0.00000000000000000e+00 0.00000000000000000e+00 0.00000000000000000e+00 0.00000000000000000e+00 0.00000000000000000e+00 0.00000000000000000e+00 0.00000000000000000e+00 0.00000000000000000e+00 1.00000000000000000e+00 0.00000000000000000e+00 1.00000000000000000e+00 0.00000000000000000e+00 0.00000000000000000e+00 0.00000000000000000e+00 1.00000000000000000e+00 0.00000000000000000e+00 0.00000000000000000e+00 0.00000000000000000e+00 0.00000000000000000e+00 0.00000000000000000e+00 0.00000000000000000e+00 0.00000000000000000e+00 0.00000000000000000e+00 1.00000000000000000e+00 0.00000000000000000e+00 0.00000000000000000e+00 1.00000000000000000e+00 0.00000000000000000e+00 0.00000000000000000e+00 0.00000000000000000e+00 0.00000000000000000e+00 0.00000000000000000e+00 1.00000000000000000e+00 0.00000000000000000e+00 0.00000000000000000e+00 0.00000000000000000e+00 0.00000000000000000e+00 0.00000000000000000e+00 0.00000000000000000e+00 0.00000000000000000e+00 0.00000000000000000e+00 0.00000000000000000e+00 0.00000000000000000e+00 0.00000000000000000e+00 0.00000000000000000e+00 0.00000000000000000e+00 0.00000000000000000e+00 0.00000000000000000e+00 0.00000000000000000e+00 0.00000000000000000e+00 0.00000000000000000e+00 0.00000000000000000e+00 0.00000000000000000e+00 0.00000000000000000e+00 0.00000000000000000e+00 0.00000000000000000e+00 0.00000000000000000e+00 0.00000000000000000e+00 0.00000000000000000e+00 0.00000000000000000e+00 0.00000000000000000e+00 0.00000000000000000e+00 0.00000000000000000e+00 1.00000000000000000e+00 0.00000000000000000e+00 0.00000000000000000e+00 0.00000000000000000e+00 0.00000000000000000e+00 0.00000000000000000e+00 0.00000000000000000e+00 0.00000000000000000e+00 0.00000000000000000e+00 0.00000000000000000e+00 0.00000000000000000e+00 0.00000000000000000e+00 0.00000000000000000e+00 0.00000000000000000e+00 0.00000000000000000e+00 0.00000000000000000e+00 0.00000000000000000e+00 1.00000000000000000e+00 0.00000000000000000e+00 0.00000000000000000e+00 0.00000000000000000e+00 0.00000000000000000e+00 0.00000000000000000e+00 0.00000000000000000e+00 0.00000000000000000e+00 0.00000000000000000e+00 0.00000000000000000e+00 0.00000000000000000e+00 0.00000000000000000e+00 0.00000000000000000e+00 0.00000000000000000e+00 0.00000000000000000e+00 0.00000000000000000e+00 0.00000000000000000e+00 0.00000000000000000e+00 0.00000000000000000e+00 0.00000000000000000e+00 0.00000000000000000e+00 1.00000000000000000e+00 0.00000000000000000e+00 0.00000000000000000e+00 0.00000000000000000e+00 1.00000000000000000e+00 0.00000000000000000e+00 0.00000000000000000e+00 0.00000000000000000e+00 0.00000000000000000e+00 0.00000000000000000e+00 0.00000000000000000e+00 0.00000000000000000e+00 0.00000000000000000e+00 0.00000000000000000e+00 0.00000000000000000e+00 0.00000000000000000e+00 0.00000000000000000e+00 0.00000000000000000e+00 0.00000000000000000e+00 0.00000000000000000e+00 0.00000000000000000e+00 0.00000000000000000e+00 0.00000000000000000e+00 0.00000000000000000e+00 0.00000000000000000e+00 0.00000000000000000e+00 0.00000000000000000e+00 0.00000000000000000e+00 0.00000000000000000e+00 0.00000000000000000e+00 0.00000000000000000e+00 0.00000000000000000e+00 0.00000000000000000e+00 0.00000000000000000e+00 0.00000000000000000e+00 0.00000000000000000e+00 0.00000000000000000e+00 1.00000000000000000e+00 0.00000000000000000e+00 0.00000000000000000e+00 0.00000000000000000e+00 0.00000000000000000e+00 0.00000000000000000e+00 0.00000000000000000e+00 0.00000000000000000e+00 0.00000000000000000e+00 0.00000000000000000e+00 0.00000000000000000e+00 0.00000000000000000e+00 0.00000000000000000e+00 0.00000000000000000e+00 0.00000000000000000e+00 0.00000000000000000e+00 0.00000000000000000e+00 0.00000000000000000e+00 0.00000000000000000e+00 0.00000000000000000e+00 0.00000000000000000e+00 0.00000000000000000e+00 0.00000000000000000e+00 0.00000000000000000e+00 0.00000000000000000e+00 0.00000000000000000e+00 0.00000000000000000e+00 1.00000000000000000e+00 1.00000000000000000e+00 0.00000000000000000e+00 0.00000000000000000e+00 0.00000000000000000e+00 1.00000000000000000e+00 0.00000000000000000e+00 0.00000000000000000e+00 1.00000000000000000e+00 0.00000000000000000e+00 0.00000000000000000e+00 0.00000000000000000e+00 1.00000000000000000e+00 0.00000000000000000e+00 0.00000000000000000e+00 0.00000000000000000e+00 0.00000000000000000e+00 0.00000000000000000e+00 1.00000000000000000e+00 0.00000000000000000e+00 0.00000000000000000e+00 0.00000000000000000e+00 0.00000000000000000e+00 0.00000000000000000e+00 0.00000000000000000e+00 0.00000000000000000e+00 0.00000000000000000e+00 0.00000000000000000e+00 1.00000000000000000e+00 0.00000000000000000e+00 0.00000000000000000e+00 0.00000000000000000e+00 0.00000000000000000e+00 1.00000000000000000e+00 0.00000000000000000e+00 0.00000000000000000e+00 0.00000000000000000e+00 0.00000000000000000e+00 0.00000000000000000e+00 0.00000000000000000e+00 1.00000000000000000e+00 0.00000000000000000e+00 0.00000000000000000e+00 0.00000000000000000e+00 0.00000000000000000e+00 1.00000000000000000e+00 0.00000000000000000e+00 0.00000000000000000e+00 0.00000000000000000e+00 0.00000000000000000e+00 0.00000000000000000e+00 0.00000000000000000e+00 0.00000000000000000e+00 0.00000000000000000e+00 0.00000000000000000e+00 1.00000000000000000e+00 1.00000000000000000e+00 0.00000000000000000e+00 1.00000000000000000e+00 0.00000000000000000e+00 0.00000000000000000e+00 1.00000000000000000e+00 1.00000000000000000e+00 0.00000000000000000e+00 0.00000000000000000e+00 0.00000000000000000e+00 0.00000000000000000e+00 0.00000000000000000e+00 1.00000000000000000e+00 0.00000000000000000e+00 0.00000000000000000e+00 0.00000000000000000e+00 1.00000000000000000e+00 0.00000000000000000e+00 0.00000000000000000e+00 0.00000000000000000e+00 0.00000000000000000e+00 0.00000000000000000e+00 0.00000000000000000e+00 0.00000000000000000e+00 0.00000000000000000e+00 0.00000000000000000e+00 0.00000000000000000e+00 0.00000000000000000e+00 0.00000000000000000e+00 0.00000000000000000e+00 0.00000000000000000e+00 0.00000000000000000e+00 0.00000000000000000e+00 0.00000000000000000e+00 0.00000000000000000e+00 0.00000000000000000e+00 0.00000000000000000e+00 0.00000000000000000e+00 0.00000000000000000e+00 0.00000000000000000e+00 0.00000000000000000e+00 1.00000000000000000e+00 0.0000000000000000