<?xml version="1.0"?>
<VTKFile type="UnstructuredGrid" version="0.1" byte_order="LittleEndian" compressor="vtkZLibDataCompressor">
<trisurfversion>Trisurf (commit ), compiled on Aug  2 2022 16:20:21</trisurfversion>
<dumpdate>Tue Aug  2 16:31:35 2022
</dumpdate>
<tape>####### Vesicle definitions ###########
# nshell is a number of divisions of dipyramid
nshell=17
# dmax is the max. bond length (in units l_min)
dmax=1.7
# dmin_interspecies in the min. dist. between different vertex species (in units l_min)
dmin_interspecies=1.2
# bending rigidity of the membrane (in units kT)
xk0=20.0
# max step size (in units l_min)
stepsize=0.15

# Pressure calculations
# (pswitch=1: calc. p*dV energy contribution)
pswitch = 0
# pressure difference: p_inside - p_outside (in units kT/l_min^3):
pressure=0.1

#Constant volume constraint (0 disable constant volume, 1 enable wiht additional vertex move, 2 enable with epsvol)
constvolswitch=0
constvolprecision=1e-14

#Constant area constraint (0 disable constant area, 2 enable constant area with epsarea)
constareaswitch=0


#Stretching
stretchswitch=0
xkA0=0.0

####### Polymer (brush) definitions ###########
# npoly is a number of polymers attached to npoly distinct vertices on vesicle
npoly=0
# nmono is a number of monomers in each polymer
nmono=20
# Spring constant between monomers of the polymer
k_spring=800
#set to 1 if half of the polymeres are inside the vesicle
internal_poly=0

####### Filament (inside the vesicle) definitions ###########
# nfil is a number of filaments inside the vesicle
nfil=0
# nfono is a number of monomers in each filament
nfono=3
# Persistence lenght of the filaments (in units l_min)
xi=100

####### Nucleus (inside the vesicle) ###########
# Radius of an impenetrable hard sphere inside the vesicle
R_nucleus=0
R_nucleusX=0
R_nucleusY=0
R_nucleusZ=0
#######  Cell definitions ############
nxmax=100
nymax=100
nzmax=100


####### Program Control ############
#how many MC sweeps between subsequent records of states to disk
#200000
mcsweeps=2000
#how many initial mcsweeps*inititer MC sweeps before recording to disk?
#2
inititer=0
#how many records do you want on the disk iteration are there in a run?
#10000
iterations=10


###### Spherical harmonics ###########
# If 0 then spherical harmonics are not calculated at all.
spherical_harmonics_coefficients=21

#shut up if we are using cluster!!!
quiet=false
 


#what type of multiprocessing? (*none, smp, cluster, distributed, cuda, auto)
#currently only none makes sense.
multiprocessing=none
#how many cores are allowed to process in SMP?
smp_cores=2
#how many nodes in cluster?
cluster_nodes=50
#max number of processes in distributed (voluntary) environment
distributed_processes=50
#cuda options???


#number of vertices with spontaneous curvature (integer)
number_of_vertices_with_c0=100
#c0/2 is spontaneous curvature. c0 is used as (c1+c1-c0)^2 in energy term (float)
c0=1.0
#energy of attraction of vertices with spontaneous curvature (float, positive value for attraction)
w=1.0
#direct force on vesicles with spontaneous curvature (float)
F=0.5
# direct force noise_switch
F_noise_switch=1
#F_noise_mean=0.5
F_noise_SD=0.1

#plane confinement; two plates between the substrate-vesicle system, upper plate in moving downwards untill plan_d, lower plate is stationary
plane_confinement_switch=0
#final plane distance (float in lmin)
plane_d=10
#plane to vesicle repulsion force while closing
plane_F=1.0

#some important parameters
#which type of adhesion model do you want; step_potential (1), parabolic potential (2) , for shperical surface with step potential (3), for cylindrical (along y-axis) surface with step potential (4)
#cylinder along x-axis, choose (5)
type_of_adhesion_model=1
#do you want to see any crawling motion on x-y plane, then choose 1, 0 otherwise; only for flate and cylindrical substrate 
allow_xy_plane_movement=0
#in active case, we need to apply an external force in the z-direction for overall force balance along z-direction, choose 1 if you want this, 0 otherwise
force_balance_along_z_axis=0


#Adhesion
adhesion_switch=1
#potential range (float in lmin)
adhesion_cuttoff=1
#adhesion energy per unit area or per vertex
adhesion_strength=3.0
#radius of the sphere or cylinder; for a flate substarte, choose it to be zero
adhesion_radius=0.0
#position of the adhesive surface
z_adhesion= -10.72493
#choose z_adhesion depending on nshell
#17, -10.724914687230324 
#18, -11.355792021773285 
#19, -11.986669356316245 
#20, -12.617546690859205 
#25, -15.771933363574005 
#27, -17.033688032659928 
#29, -18.29544270174585 
#31, -19.55719737083177 
#33, -20.818952039917686 



# Shear force at each point Fx=az+b
shear_switch=1
a=0.01
b=0.
nx=1
ny=1


</tape>
<trisurf nvtx="1447" npoly="0" nmono="0" compressed="false">
<tria>9 0 2 2 7 34 11 25 4 13 5 0 15 7 1 4 3 11 29 28 72 18 34 7 1 2 0 18 20 34 56 37 20 62 89 23 8 9 17 43 11 41 11 3 21 14 26 24 13 3 4 26 13 4 14 24 27 27 47 49 31 16 6 8 39 22 30 15 49 15 6 7 32 16 51 33 32 51 34 17 2 19 114 56 21 3 9 8 22 21 21 9 8 22 41 21 118 88 62 41 11 21 64 65 42 66 12 25 44 93 67 13 14 5 45 27 24 12 44 4 14 49 5 46 99 70 49 28 30 30 6 15 30 28 74 1 5 15 103 139 73 6 32 7 31 6 30 2 17 9 18 19 20 7 32 18 7 2 1 82 114 35 37 8 17 57 39 37 59 38 87 9 3 0 8 37 39 58 56 114 41 40 10 87 60 86 121 120 63 41 10 43 36 61 39 65 43 42 43 65 25 25 12 4 68 67 96 44 26 4 45 46 27 68 69 45 28 49 47 5 1 0 29 72 48 27 46 47 74 50 31 15 5 49 49 14 27 51 16 52 29 74 28 105 104 139 78 52 75 50 104 31 53 54 33 33 19 18 6 16 32 18 32 33 20 37 17 35 113 82 54 80 55 82 116 58 56 57 37 111 81 146 56 58 57 85 117 38 17 34 20 58 116 59 39 57 36 87 61 36 62 23 10 22 40 41 89 90 23 91 42 90 66 65 126 42 91 64 0 3 13 124 126 64 90 63 91 11 43 25 67 97 44 131 68 96 45 24 97 44 97 24 68 131 69 14 13 26 69 99 46 47 70 72 71 72 70 101 136 71 221 103 102 175 219 176 31 30 74 29 73 74 52 31 104 223 105 138 179 76 77 104 77 75 51 52 78 78 53 51 75 109 78 53 33 51 19 54 35 80 53 79 78 109 79 55 113 35 55 35 54 19 33 54 59 57 58 79 110 80 87 36 59 151 239 152 115 85 83 38 116 85 154 117 195 58 114 82 38 60 87 40 61 62 61 87 118 40 39 61 90 89 121 62 10 40 40 22 39 91 123 124 43 10 42 25 65 66 42 10 23 125 126 92 66 94 93 95 96 67 94 95 93 94 126 125 96 95 128 12 93 44 68 97 67 12 66 93 131 132 98 99 133 100 71 100 101 45 69 46 100 172 173 70 99 100 134 136 101 134 135 136 73 139 50 104 105 77 48 136 102 136 48 71 80 54 53 75 77 76 108 76 140 229 183 228 229 143 140 178 106 179 52 104 75 76 108 109 75 76 109 79 145 110 144 108 143 150 148 112 110 146 80 35 114 19 146 55 80 112 192 113 20 19 56 82 192 83 59 36 57 82 113 192 84 85 115 152 153 84 195 117 153 117 60 38 59 116 38 154 86 60 86 88 118 155 156 119 86 155 88 121 119 120 119 122 155 119 199 157 121 89 122 90 42 23 62 61 118 161 160 251 63 90 121 125 92 163 124 92 126 161 204 252 125 127 94 127 95 94 207 254 206 129 128 167 128 129 130 165 167 127 211 130 129 93 95 67 70 47 46 131 96 169 97 68 45 133 99 98 131 169 132 132 171 98 100 71 70 133 172 100 101 173 134 72 28 47 48 72 71 73 29 48 103 48 102 223 272 177 48 103 73 138 137 223 221 137 138 50 139 104 107 140 179 328 274 273 106 107 179 182 183 142 76 179 140 107 106 142 79 109 145 229 184 143 109 108 145 108 144 145 31 52 16 110 187 146 55 146 81 108 140 143 112 113 81 233 149 188 81 147 112 190 189 235 81 113 55 147 81 111 116 82 83 194 239 151 84 115 152 85 116 83 241 239 291 117 154 60 84 117 85 88 89 62 87 86 118 197 155 154 197 244 156 120 158 203 201 157 299 63 120 203 119 157 120 160 123 63 121 122 119 251 204 161 162 92 124 162 123 161 123 91 63 123 160 161 160 63 203 163 205 206 163 127 125 254 208 164 126 94 66 165 166 167 164 206 254 210 129 166 167 95 127 24 26 44 129 210 211 95 167 128 130 212 169 169 96 128 212 132 169 69 131 98 132 261 170 264 172 216 98 171 133 133 216 172 98 99 69 176 222 221 319 265 217 134 174 268 136 135 102 270 220 325 138 103 221 223 177 180 138 139 103 105 139 138 50 74 73 183 229 107 223 178 105 77 105 178 142 106 225 224 181 141 225 273 274 142 225 141 140 107 229 185 232 186 279 281 184 184 144 143 53 78 79 186 187 110 110 145 186 184 281 185 188 111 187 234 188 187 234 339 233 194 151 148 112 148 192 149 190 147 147 190 150 188 147 111 194 150 191 112 147 150 190 235 191 115 83 151 115 151 152 194 193 239 242 292 196 194 191 193 117 84 153 196 195 153 86 154 155 197 154 195 119 156 199 245 299 198 158 120 157 158 248 202 89 88 122 157 199 299 122 88 155 158 201 248 358 250 248 203 158 159 159 202 302 159 160 203 204 303 304 126 65 64 205 92 162 123 162 124 252 207 205 124 64 91 253 305 255 209 166 164 167 166 129 365 307 257 208 365 257 168 130 211 166 165 164 259 258 311 169 128 130 212 130 168 168 211 313 260 213 261 170 215 216 215 214 263 214 213 316 133 171 216 216 171 170 132 170 171 265 174 217 174 134 173 173 101 100 265 320 266 135 134 268 175 268 269 268 175 135 102 135 176 176 135 175 137 222 272 270 271 327 180 106 178 328 177 327 180 273 225 225 224 141 223 180 178 177 273 180 226 275 330 331 276 525 141 227 182 275 226 181 228 333 278 141 182 142 183 107 142 460 461 395 336 338 231 228 182 333 228 230 229 145 144 186 231 282 232 232 187 186 234 232 282 188 149 147 146 187 111 189 190 149 149 285 189 343 288 237 189 236 235 403 287 342 288 289 237 345 346 290 345 344 622 151 83 192 345 290 289 238 191 237 240 348 292 153 152 242 148 151 192 196 294 195 242 196 153 350 351 243 292 241 240 197 195 294 197 156 155 156 198 199 200 248 201 295 244 296 297 298 245 358 247 357 200 201 299 247 200 298 157 201 158 158 202 159 199 198 299 302 202 250 159 302 251 250 202 248 304 252 204 162 161 252 363 426 305 207 206 205 165 163 164 253 207 252 306 255 305 165 127 163 254 365 208 163 206 164 368 369 311 257 310 209 308 307 429 209 210 166 258 211 210 259 313 258 261 132 212 261 212 168 261 168 260 373 315 374 214 215 170 377 263 316 216 215 264 170 261 214 263 318 215 441 319 318 217 174 173 264 217 172 174 265 218 320 265 319 174 218 268 267 323 266 325 219 324 220
[...]
<PointData Scalars="vertices_idx">
<DataArray type="Int64" Name="vertices_idx" format="ascii">0 1 2 3 4 5 6 7 8 9 10 11 12 13 14 15 16 17 18 19 20 21 22 23 24 25 26 27 28 29 30 31 32 33 34 35 36 37 38 39 40 41 42 43 44 45 46 47 48 49 50 51 52 53 54 55 56 57 58 59 60 61 62 63 64 65 66 67 68 69 70 71 72 73 74 75 76 77 78 79 80 81 82 83 84 85 86 87 88 89 90 91 92 93 94 95 96 97 98 99 100 101 102 103 104 105 106 107 108 109 110 111 112 113 114 115 116 117 118 119 120 121 122 123 124 125 126 127 128 129 130 131 132 133 134 135 136 137 138 139 140 141 142 143 144 145 146 147 148 149 150 151 152 153 154 155 156 157 158 159 160 161 162 163 164 165 166 167 168 169 170 171 172 173 174 175 176 177 178 179 180 181 182 183 184 185 186 187 188 189 190 191 192 193 194 195 196 197 198 199 200 201 202 203 204 205 206 207 208 209 210 211 212 213 214 215 216 217 218 219 220 221 222 223 224 225 226 227 228 229 230 231 232 233 234 235 236 237 238 239 240 241 242 243 244 245 246 247 248 249 250 251 252 253 254 255 256 257 258 259 260 261 262 263 264 265 266 267 268 269 270 271 272 273 274 275 276 277 278 279 280 281 282 283 284 285 286 287 288 289 290 291 292 293 294 295 296 297 298 299 300 301 302 303 304 305 306 307 308 309 310 311 312 313 314 315 316 317 318 319 320 321 322 323 324 325 326 327 328 329 330 331 332 333 334 335 336 337 338 339 340 341 342 343 344 345 346 347 348 349 350 351 352 353 354 355 356 357 358 359 360 361 362 363 364 365 366 367 368 369 370 371 372 373 374 375 376 377 378 379 380 381 382 383 384 385 386 387 388 389 390 391 392 393 394 395 396 397 398 399 400 401 402 403 404 405 406 407 408 409 410 411 412 413 414 415 416 417 418 419 420 421 422 423 424 425 426 427 428 429 430 431 432 433 434 435 436 437 438 439 440 441 442 443 444 445 446 447 448 449 450 451 452 453 454 455 456 457 458 459 460 461 462 463 464 465 466 467 468 469 470 471 472 473 474 475 476 477 478 479 480 481 482 483 484 485 486 487 488 489 490 491 492 493 494 495 496 497 498 499 500 501 502 503 504 505 506 507 508 509 510 511 512 513 514 515 516 517 518 519 520 521 522 523 524 525 526 527 528 529 530 531 532 533 534 535 536 537 538 539 540 541 542 543 544 545 546 547 548 549 550 551 552 553 554 555 556 557 558 559 560 561 562 563 564 565 566 567 568 569 570 571 572 573 574 575 576 577 578 579 580 581 582 583 584 585 586 587 588 589 590 591 592 593 594 595 596 597 598 599 600 601 602 603 604 605 606 607 608 609 610 611 612 613 614 615 616 617 618 619 620 621 622 623 624 625 626 627 628 629 630 631 632 633 634 635 636 637 638 639 640 641 642 643 644 645 646 647 648 649 650 651 652 653 654 655 656 657 658 659 660 661 662 663 664 665 666 667 668 669 670 671 672 673 674 675 676 677 678 679 680 681 682 683 684 685 686 687 688 689 690 691 692 693 694 695 696 697 698 699 700 701 702 703 704 705 706 707 708 709 710 711 712 713 714 715 716 717 718 719 720 721 722 723 724 725 726 727 728 729 730 731 732 733 734 735 736 737 738 739 740 741 742 743 744 745 746 747 748 749 750 751 752 753 754 755 756 757 758 759 760 761 762 763 764 765 766 767 768 769 770 771 772 773 774 775 776 777 778 779 780 781 782 783 784 785 786 787 788 789 790 791 792 793 794 795 796 797 798 799 800 801 802 803 804 805 806 807 808 809 810 811 812 813 814 815 816 817 818 819 820 821 822 823 824 825 826 827 828 829 830 831 832 833 834 835 836 837 838 839 840 841 842 843 844 845 846 847 848 849 850 851 852 853 854 855 856 857 858 859 860 861 862 863 864 865 866 867 868 869 870 871 872 873 874 875 876 877 878 879 880 881 882 883 884 885 886 887 888 889 890 891 892 893 894 895 896 897 898 899 900 901 902 903 904 905 906 907 908 909 910 911 912 913 914 915 916 917 918 919 920 921 922 923 924 925 926 927 928 929 930 931 932 933 934 935 936 937 938 939 940 941 942 943 944 945 946 947 948 949 950 951 952 953 954 955 956 957 958 959 960 961 962 963 964 965 966 967 968 969 970 971 972 973 974 975 976 977 978 979 980 981 982 983 984 985 986 987 988 989 990 991 992 993 994 995 996 997 998 999 1000 1001 1002 1003 1004 1005 1006 1007 1008 1009 1010 1011 1012 1013 1014 1015 1016 1017 1018 1019 1020 1021 1022 1023 1024 1025 1026 1027 1028 1029 1030 1031 1032 1033 1034 1035 1036 1037 1038 1039 1040 1041 1042 1043 1044 1045 1046 1047 1048 1049 1050 1051 1052 1053 1054 1055 1056 1057 1058 1059 1060 1061 1062 1063 1064 1065 1066 1067 1068 1069 1070 1071 1072 1073 1074 1075 1076 1077 1078 1079 1080 1081 1082 1083 1084 1085 1086 1087 1088 1089 1090 1091 1092 1093 1094 1095 1096 1097 1098 1099 1100 1101 1102 1103 1104 1105 1106 1107 1108 1109 1110 1111 1112 1113 1114 1115 1116 1117 1118 1119 1120 1121 1122 1123 1124 1125 1126 1127 1128 1129 1130 1131 1132 1133 1134 1135 1136 1137 1138 1139 1140 1141 1142 1143 1144 1145 1146 1147 1148 1149 1150 1151 1152 1153 1154 1155 1156 1157 1158 1159 1160 1161 1162 1163 1164 1165 1166 1167 1168 1169 1170 1171 1172 1173 1174 1175 1176 1177 1178 1179 1180 1181 1182 1183 1184 1185 1186 1187 1188 1189 1190 1191 1192 1193 1194 1195 1196 1197 1198 1199 1200 1201 1202 1203 1204 1205 1206 1207 1208 1209 1210 1211 1212 1213 1214 1215 1216 1217 1218 1219 1220 1221 1222 1223 1224 1225 1226 1227 1228 1229 1230 1231 1232 1233 1234 1235 1236 1237 1238 1239 1240 1241 1242 1243 1244 1245 1246 1247 1248 1249 1250 1251 1252 1253 1254 1255 1256 1257 1258 1259 1260 1261 1262 1263 1264 1265 1266 1267 1268 1269 1270 1271 1272 1273 1274 1275 1276 1277 1278 1279 1280 1281 1282 1283 1284 1285 1286 1287 1288 1289 1290 1291 1292 1293 1294 1295 1296 1297 1298 1299 1300 1301 1302 1303 1304 1305 1306 1307 1308 1309 1310 1311 1312 1313 1314 1315 1316 1317 1318 1319 1320 1321 1322 1323 1324 1325 1326 1327 1328 1329 1330 1331 1332 1333 1334 1335 1336 1337 1338 1339 1340 1341 1342 1343 1344 1345 1346 1347 1348 1349 1350 1351 1352 1353 1354 1355 1356 1357 1358 1359 1360 1361 1362 1363 1364 1365 1366 1367 1368 1369 1370 1371 1372 1373 1374 1375 1376 1377 1378 1379 1380 1381 1382 1383 1384 1385 1386 1387 1388 1389 1390 1391 1392 1393 1394 1395 1396 1397 1398 1399 1400 1401 1402 1403 1404 1405 1406 1407 1408 1409 1410 1411 1412 1413 1414 1415 1416 1417 1418 1419 1420 1421 1422 1423 1424 1425 1426 1427 1428 1429 1430 1431 1432 1433 1434 1435 1436 1437 1438 1439 1440 1441 1442 1443 1444 1445 1446 </DataArray>
<DataArray type="Float64" Name="spontaneous_curvature" format="ascii">0.00000000000000000e+00 0.00000000000000000e+00 0.00000000000000000e+00 0.00000000000000000e+00 0.00000000000000000e+00 0.00000000000000000e+00 0.00000000000000000e+00 0.00000000000000000e+00 0.00000000000000000e+00 0.00000000000000000e+00 0.00000000000000000e+00 0.00000000000000000e+00 0.00000000000000000e+00 0.00000000000000000e+00 0.00000000000000000e+00 0.00000000000000000e+00 0.00000000000000000e+00 0.00000000000000000e+00 0.00000000000000000e+00 0.00000000000000000e+00 0.00000000000000000e+00 0.00000000000000000e+00 0.00000000000000000e+00 0.00000000000000000e+00 0.00000000000000000e+00 0.00000000000000000e+00 0.00000000000000000e+00 0.00000000000000000e+00 0.00000000000000000e+00 0.00000000000000000e+00 0.00000000000000000e+00 0.00000000000000000e+00 0.00000000000000000e+00 0.00000000000000000e+00 0.00000000000000000e+00 0.00000000000000000e+00 0.00000000000000000e+00 0.00000000000000000e+00 0.00000000000000000e+00 0.00000000000000000e+00 0.00000000000000000e+00 0.00000000000000000e+00 0.00000000000000000e+00 0.00000000000000000e+00 0.00000000000000000e+00 0.00000000000000000e+00 0.00000000000000000e+00 0.00000000000000000e+00 0.00000000000000000e+00 0.00000000000000000e+00 0.00000000000000000e+00 0.00000000000000000e+00 0.00000000000000000e+00 0.00000000000000000e+00 0.00000000000000000e+00 0.00000000000000000e+00 0.00000000000000000e+00 0.00000000000000000e+00 0.00000000000000000e+00 0.00000000000000000e+00 0.00000000000000000e+00 1.00000000000000000e+00 0.00000000000000000e+00 0.00000000000000000e+00 0.00000000000000000e+00 0.00000000000000000e+00 0.00000000000000000e+00 0.00000000000000000e+00 0.00000000000000000e+00 0.00000000000000000e+00 0.00000000000000000e+00 0.00000000000000000e+00 0.00000000000000000e+00 0.00000000000000000e+00 0.00000000000000000e+00 0.00000000000000000e+00 0.00000000000000000e+00 0.00000000000000000e+00 0.00000000000000000e+00 0.00000000000000000e+00 0.00000000000000000e+00 0.00000000000000000e+00 0.00000000000000000e+00 0.00000000000000000e+00 0.00000000000000000e+00 0.00000000000000000e+00 0.00000000000000000e+00 0.00000000000000000e+00 1.00000000000000000e+00 0.00000000000000000e+00 0.00000000000000000e+00 0.00000000000000000e+00 0.00000000000000000e+00 0.00000000000000000e+00 0.00000000000000000e+00 0.00000000000000000e+00 0.00000000000000000e+00 1.00000000000000000e+00 0.00000000000000000e+00 0.00000000000000000e+00 0.00000000000000000e+00 0.00000000000000000e+00 0.00000000000000000e+00 0.00000000000000000e+00 0.00000000000000000e+00 0.00000000000000000e+00 0.00000000000000000e+00 0.00000000000000000e+00 0.00000000000000000e+00 0.00000000000000000e+00 0.00000000000000000e+00 0.00000000000000000e+00 0.00000000000000000e+00 0.00000000000000000e+00 1.00000000000000000e+00 0.00000000000000000e+00 0.00000000000000000e+00 0.00000000000000000e+00 1.00000000000000000e+00 0.00000000000000000e+00 0.00000000000000000e+00 0.00000000000000000e+00 0.00000000000000000e+00 0.00000000000000000e+00 0.00000000000000000e+00 0.00000000000000000e+00 0.00000000000000000e+00 0.00000000000000000e+00 0.00000000000000000e+00 0.00000000000000000e+00 0.00000000000000000e+00 0.00000000000000000e+00 0.00000000000000000e+00 0.00000000000000000e+00 0.00000000000000000e+00 0.00000000000000000e+00 0.00000000000000000e+00 0.00000000000000000e+00 0.00000000000000000e+00 0.00000000000000000e+00 0.00000000000000000e+00 0.00000000000000000e+00 0.00000000000000000e+00 0.00000000000000000e+00 0.00000000000000000e+00 0.00000000000000000e+00 0.00000000000000000e+00 0.00000000000000000e+00 0.00000000000000000e+00 0.00000000000000000e+00 0.00000000000000000e+00 0.00000000000000000e+00 0.00000000000000000e+00 0.00000000000000000e+00 0.00000000000000000e+00 0.00000000000000000e+00 0.00000000000000000e+00 0.00000000000000000e+00 0.00000000000000000e+00 0.00000000000000000e+00 0.00000000000000000e+00 0.00000000000000000e+00 0.00000000000000000e+00 0.00000000000000000e+00 0.00000000000000000e+00 0.00000000000000000e+00 0.00000000000000000e+00 0.00000000000000000e+00 0.00000000000000000e+00 0.00000000000000000e+00 0.00000000000000000e+00 0.00000000000000000e+00 0.00000000000000000e+00 0.00000000000000000e+00 0.00000000000000000e+00 0.00000000000000000e+00 0.00000000000000000e+00 0.00000000000000000e+00 0.00000000000000000e+00 0.00000000000000000e+00 0.00000000000000000e+00 0.00000000000000000e+00 0.00000000000000000e+00 1.00000000000000000e+00 0.00000000000000000e+00 0.00000000000000000e+00 0.00000000000000000e+00 0.00000000000000000e+00 0.00000000000000000e+00 0.00000000000000000e+00 0.00000000000000000e+00 0.00000000000000000e+00 0.00000000000000000e+00 1.00000000000000000e+00 0.00000000000000000e+00 0.00000000000000000e+00 0.00000000000000000e+00 0.00000000000000000e+00 0.00000000000000000e+00 0.00000000000000000e+00 0.00000000000000000e+00 1.00000000000000000e+00 0.00000000000000000e+00 1.00000000000000000e+00 0.00000000000000000e+00 0.00000000000000000e+00 0.00000000000000000e+00 0.00000000000000000e+00 0.00000000000000000e+00 0.00000000000000000e+00 0.00000000000000000e+00 0.00000000000000000e+00 0.00000000000000000e+00 0.00000000000000000e+00 0.00000000000000000e+00 0.00000000000000000e+00 0.00000000000000000e+00 0.00000000000000000e+00 0.00000000000000000e+00 0.00000000000000000e+00 1.00000000000000000e+00 0.00000000000000000e+00 0.00000000000000000e+00 0.00000000000000000e+00 1.00000000000000000e+00 0.00000000000000000e+00 1.00000000000000000e+00 0.00000000000000000e+00 0.00000000000000000e+00 0.00000000000000000e+00 0.00000000000000000e+00 0.00000000000000000e+00 0.00000000000000000e+00 0.00000000000000000e+00 0.00000000000000000e+00 0.00000000000000000e+00 1.00000000000000000e+00 0.00000000000000000e+00 0.00000000000000000e+00 0.00000000000000000e+00 0.00000000000000000e+00 0.00000000000000000e+00 0.00000000000000000e+00 0.00000000000000000e+00 0.00000000000000000e+00 0.00000000000000000e+00 0.00000000000000000e+00 0.00000000000000000e+00 0.00000000000000000e+00 0.00000000000000000e+00 0.00000000000000000e+00 0.00000000000000000e+00 0.00000000000000000e+00 0.00000000000000000e+00 0.00000000000000000e+00 0.00000000000000000e+00 0.00000000000000000e+00 1.00000000000000000e+00 0.00000000000000000e+00 0.00000000000000000e+00 0.00000000000000000e+00 0.00000000000000000e+00 0.00000000000000000e+00 0.00000000000000000e+00 0.00000000000000000e+00 0.00000000000000000e+00 0.00000000000000000e+00 0.00000000000000000e+00 0.00000000000000000e+00 0.00000000000000000e+00 0.00000000000000000e+00 0.00000000000000000e+00 0.00000000000000000e+00 0.00000000000000000e+00 0.00000000000000000e+00 1.00000000000000000e+00 0.00000000000000000e+00 0.00000000000000000e+00 0.00000000000000000e+00 0.00000000000000000e+00 0.00000000000000000e+00 0.00000000000000000e+00 0.00000000000000000e+00 0.00000000000000000e+00 0.00000000000000000e+00 0.00000000000000000e+00 0.00000000000000000e+00 0.00000000000000000e+00 0.00000000000000000e+00 0.00000000000000000e+00 0.00000000000000000e+00 0.00000000000000000e+00 0.00000000000000000e+00 0.00000000000000000e+00 0.00000000000000000e+00 0.00000000000000000e+00 0.00000000000000000e+00 0.00000000000000000e+00 0.00000000000000000e+00 0.00000000000000000e+00 0.00000000000000000e+00 0.00000000000000000e+00 0.00000000000000000e+00 0.00000000000000000e+00 0.00000000000000000e+00 0.00000000000000000e+00 0.00000000000000000e+00 0.00000000000000000e+00 0.00000000000000000e+00 0.00000000000000000e+00 0.00000000000000000e+00 0.00000000000000000e+00 0.00000000000000000e+00 0.00000000000000000e+00 0.00000000000000000e+00 1.00000000000000000e+00 0.00000000000000000e+00 1.00000000000000000e+00 0.00000000000000000e+00 0.00000000000000000e+00 0.00000000000000000e+00 1.00000000000000000e+00 0.00000000000000000e+00 0.00000000000000000e+00 0.00000000000000000e+00 0.00000000000000000e+00 0.00000000000000000e+00 0.00000000000000000e+00 0.00000000000000000e+00 0.00000000000000000e+00 1.00000000000000000e+00 0.00000000000000000e+00 0.00000000000000000e+00 1.00000000000000000e+00 0.00000000000000000e+00 0.00000000000000000e+00 0.00000000000000000e+00 0.00000000000000000e+00 0.00000000000000000e+00 1.00000000000000000e+00 0.00000000000000000e+00 0.00000000000000000e+00 0.00000000000000000e+00 0.00000000000000000e+00 0.00000000000000000e+00 0.00000000000000000e+00 0.00000000000000000e+00 0.00000000000000000e+00 0.00000000000000000e+00 0.00000000000000000e+00 0.00000000000000000e+00 0.00000000000000000e+00 0.00000000000000000e+00 0.00000000000000000e+00 0.00000000000000000e+00 0.00000000000000000e+00 0.00000000000000000e+00 0.00000000000000000e+00 0.00000000000000000e+00 0.00000000000000000e+00 0.00000000000000000e+00 0.00000000000000000e+00 0.00000000000000000e+00 0.00000000000000000e+00 0.00000000000000000e+00 0.00000000000000000e+00 0.00000000000000000e+00 0.00000000000000000e+00 0.00000000000000000e+00 0.00000000000000000e+00 1.00000000000000000e+00 0.00000000000000000e+00 0.00000000000000000e+00 0.00000000000000000e+00 0.00000000000000000e+00 0.00000000000000000e+00 0.00000000000000000e+00 0.00000000000000000e+00 0.00000000000000000e+00 0.00000000000000000e+00 0.00000000000000000e+00 0.00000000000000000e+00 0.00000000000000000e+00 0.00000000000000000e+00 0.00000000000000000e+00 0.00000000000000000e+00 0.00000000000000000e+00 1.00000000000000000e+00 0.00000000000000000e+00 0.00000000000000000e+00 0.00000000000000000e+00 0.00000000000000000e+00 0.00000000000000000e+00 0.00000000000000000e+00 0.00000000000000000e+00 0.00000000000000000e+00 0.00000000000000000e+00 0.00000000000000000e+00 0.00000000000000000e+00 0.00000000000000000e+00 0.00000000000000000e+00 0.00000000000000000e+00 0.00000000000000000e+00 0.00000000000000000e+00 0.00000000000000000e+00 0.00000000000000000e+00 0.00000000000000000e+00 0.00000000000000000e+00 1.00000000000000000e+00 0.00000000000000000e+00 0.00000000000000000e+00 0.00000000000000000e+00 1.00000000000000000e+00 0.00000000000000000e+00 0.00000000000000000e+00 0.00000000000000000e+00 0.00000000000000000e+00 0.00000000000000000e+00 0.00000000000000000e+00 0.00000000000000000e+00 0.00000000000000000e+00 0.00000000000000000e+00 0.00000000000000000e+00 0.00000000000000000e+00 0.00000000000000000e+00 0.00000000000000000e+00 0.00000000000000000e+00 0.00000000000000000e+00 0.00000000000000000e+00 0.00000000000000000e+00 0.00000000000000000e+00 0.00000000000000000e+00 0.00000000000000000e+00 0.00000000000000000e+00 0.00000000000000000e+00 0.00000000000000000e+00 0.00000000000000000e+00 0.00000000000000000e+00 0.00000000000000000e+00 0.00000000000000000e+00 0.00000000000000000e+00 0.00000000000000000e+00 0.00000000000000000e+00 0.00000000000000000e+00 0.00000000000000000e+00 1.00000000000000000e+00 0.00000000000000000e+00 0.00000000000000000e+00 0.00000000000000000e+00 0.00000000000000000e+00 0.00000000000000000e+00 0.00000000000000000e+00 0.00000000000000000e+00 0.00000000000000000e+00 0.00000000000000000e+00 0.00000000000000000e+00 0.00000000000000000e+00 0.00000000000000000e+00 0.00000000000000000e+00 0.00000000000000000e+00 0.00000000000000000e+00 0.00000000000000000e+00 0.00000000000000000e+00 0.00000000000000000e+00 0.00000000000000000e+00 0.00000000000000000e+00 0.00000000000000000e+00 0.00000000000000000e+00 0.00000000000000000e+00 0.00000000000000000e+00 0.00000000000000000e+00 0.00000000000000000e+00 1.00000000000000000e+00 1.00000000000000000e+00 0.00000000000000000e+00 0.00000000000000000e+00 0.00000000000000000e+00 1.00000000000000000e+00 0.00000000000000000e+00 0.00000000000000000e+00 1.00000000000000000e+00 0.00000000000000000e+00 0.00000000000000000e+00 0.00000000000000000e+00 1.00000000000000000e+00 0.00000000000000000e+00 0.00000000000000000e+00 0.00000000000000000e+00 0.00000000000000000e+00 0.00000000000000000e+00 1.00000000000000000e+00 0.00000000000000000e+00 0.00000000000000000e+00 0.00000000000000000e+00 0.00000000000000000e+00 0.00000000000000000e+00 0.00000000000000000e+00 0.00000000000000000e+00 0.00000000000000000e+00 0.00000000000000000e+00 1.00000000000000000e+00 0.00000000000000000e+00 0.00000000000000000e+00 0.00000000000000000e+00 0.00000000000000000e+00 1.00000000000000000e+00 0.00000000000000000e+00 0.00000000000000000e+00 0.00000000000000000e+00 0.00000000000000000e+00 0.00000000000000000e+00 0.00000000000000000e+00 1.00000000000000000e+00 0.00000000000000000e+00 0.00000000000000000e+00 0.00000000000000000e+00 0.00000000000000000e+00 1.00000000000000000e+00 0.00000000000000000e+00 0.00000000000000000e+00 0.00000000000000000e+00 0.00000000000000000e+00 0.00000000000000000e+00 0.00000000000000000e+00 0.00000000000000000e+00 0.00000000000000000e+00 0.00000000000000000e+00 1.00000000000000000e+00 1.00000000000000000e+00 0.00000000000000000e+00 1.00000000000000000e+00 0.00000000000000000e+00 0.00000000000000000e+00 1.00000000000000000e+00 1.00000000000000000e+00 0.00000000000000000e+00 0.00000000000000000e+00 0.00000000000000000e+00 0.00000000000000000e+00 0.00000000000000000e+00 1.00000000000000000e+00 0.00000000000000000e+00 0.00000000000000000e+00 0.00000000000000000e+00 1.00000000000000000e+00 0.00000000000000000e+00 0.00000000000000000e+00 0.00000000000000000e+00 0.00000000000000000e+00 0.00000000000000000e+00 0.00000000000000000e+00 0.00000000000000000e+00 0.00000000000000000e+00 0.00000000000000000e+00 0.00000000000000000e+00 0.00000000000000000e+00 0.00000000000000000e+00 0.00000000000000000e+00 0.00000000000000000e+00 0.00000000000000000e+00 0.00000000000000000e+00 0.00000000000000000e+00 0.00000000000000000e+00 0.00000000000000000e+00 0.00000000000000000e+00 0.00000000000000000e+00 0.00000000000000000e+00 0.00000000000000000e+00 0.00000000000000000e+00 1.00000000000000000e+00 0.0000000000000000