<?xml version="1.0"?>
<VTKFile type="UnstructuredGrid" version="0.1" byte_order="LittleEndian" compressor="vtkZLibDataCompressor">
<trisurfversion>Trisurf (commit ), compiled on Aug  2 2022 16:20:21</trisurfversion>
<dumpdate>Tue Aug  2 16:31:55 2022
</dumpdate>
<tape>####### Vesicle definitions ###########
# nshell is a number of divisions of dipyramid
nshell=17
# dmax is the max. bond length (in units l_min)
dmax=1.7
# dmin_interspecies in the min. dist. between different vertex species (in units l_min)
dmin_interspecies=1.2
# bending rigidity of the membrane (in units kT)
xk0=20.0
# max step size (in units l_min)
stepsize=0.15

# Pressure calculations
# (pswitch=1: calc. p*dV energy contribution)
pswitch = 0
# pressure difference: p_inside - p_outside (in units kT/l_min^3):
pressure=0.1

#Constant volume constraint (0 disable constant volume, 1 enable wiht additional vertex move, 2 enable with epsvol)
constvolswitch=0
constvolprecision=1e-14

#Constant area constraint (0 disable constant area, 2 enable constant area with epsarea)
constareaswitch=0


#Stretching
stretchswitch=0
xkA0=0.0

####### Polymer (brush) definitions ###########
# npoly is a number of polymers attached to npoly distinct vertices on vesicle
npoly=0
# nmono is a number of monomers in each polymer
nmono=20
# Spring constant between monomers of the polymer
k_spring=800
#set to 1 if half of the polymeres are inside the vesicle
internal_poly=0

####### Filament (inside the vesicle) definitions ###########
# nfil is a number of filaments inside the vesicle
nfil=0
# nfono is a number of monomers in each filament
nfono=3
# Persistence lenght of the filaments (in units l_min)
xi=100

####### Nucleus (inside the vesicle) ###########
# Radius of an impenetrable hard sphere inside the vesicle
R_nucleus=0
R_nucleusX=0
R_nucleusY=0
R_nucleusZ=0
#######  Cell definitions ############
nxmax=100
nymax=100
nzmax=100


####### Program Control ############
#how many MC sweeps between subsequent records of states to disk
#200000
mcsweeps=2000
#how many initial mcsweeps*inititer MC sweeps before recording to disk?
#2
inititer=0
#how many records do you want on the disk iteration are there in a run?
#10000
iterations=10


###### Spherical harmonics ###########
# If 0 then spherical harmonics are not calculated at all.
spherical_harmonics_coefficients=21

#shut up if we are using cluster!!!
quiet=false
 


#what type of multiprocessing? (*none, smp, cluster, distributed, cuda, auto)
#currently only none makes sense.
multiprocessing=none
#how many cores are allowed to process in SMP?
smp_cores=2
#how many nodes in cluster?
cluster_nodes=50
#max number of processes in distributed (voluntary) environment
distributed_processes=50
#cuda options???


#number of vertices with spontaneous curvature (integer)
number_of_vertices_with_c0=100
#c0/2 is spontaneous curvature. c0 is used as (c1+c1-c0)^2 in energy term (float)
c0=1.0
#energy of attraction of vertices with spontaneous curvature (float, positive value for attraction)
w=1.0
#direct force on vesicles with spontaneous curvature (float)
F=0.5
# direct force noise_switch
F_noise_switch=1
#F_noise_mean=0.5
F_noise_SD=0.1

#plane confinement; two plates between the substrate-vesicle system, upper plate in moving downwards untill plan_d, lower plate is stationary
plane_confinement_switch=0
#final plane distance (float in lmin)
plane_d=10
#plane to vesicle repulsion force while closing
plane_F=1.0

#some important parameters
#which type of adhesion model do you want; step_potential (1), parabolic potential (2) , for shperical surface with step potential (3), for cylindrical (along y-axis) surface with step potential (4)
#cylinder along x-axis, choose (5)
type_of_adhesion_model=1
#do you want to see any crawling motion on x-y plane, then choose 1, 0 otherwise; only for flate and cylindrical substrate 
allow_xy_plane_movement=0
#in active case, we need to apply an external force in the z-direction for overall force balance along z-direction, choose 1 if you want this, 0 otherwise
force_balance_along_z_axis=0


#Adhesion
adhesion_switch=1
#potential range (float in lmin)
adhesion_cuttoff=1
#adhesion energy per unit area or per vertex
adhesion_strength=3.0
#radius of the sphere or cylinder; for a flate substarte, choose it to be zero
adhesion_radius=0.0
#position of the adhesive surface
z_adhesion= -10.72493
#choose z_adhesion depending on nshell
#17, -10.724914687230324 
#18, -11.355792021773285 
#19, -11.986669356316245 
#20, -12.617546690859205 
#25, -15.771933363574005 
#27, -17.033688032659928 
#29, -18.29544270174585 
#31, -19.55719737083177 
#33, -20.818952039917686 



# Shear force at each point Fx=az+b
shear_switch=1
a=0.01
b=0.
nx=1
ny=1


</tape>
<trisurf nvtx="1447" npoly="0" nmono="0" compressed="false">
<tria>3 13 2 18 34 1 25 12 26 3 4 13 15 14 5 9 41 2 134 136 101 7 15 6 14 15 1 37 34 18 20 37 18 59 61 36 2 34 17 22 64 43 26 3 10 74 49 28 13 14 0 2 13 0 97 44 67 5 14 27 52 31 75 17 8 9 14 13 27 30 74 50 16 52 78 33 18 7 34 37 17 20 33 19 9 21 41 21 9 39 22 21 40 91 22 40 120 62 89 10 43 25 64 126 43 12 93 67 131 169 212 1 0 14 24 13 4 25 26 10 72 47 70 133 132 99 74 30 5 16 78 80 49 5 27 1 15 7 105 139 48 51 53 33 6 15 30 0 1 34 19 35 56 18 1 7 2 17 9 192 115 81 57 8 17 8 57 116 60 116 117 2 41 3 59 36 60 21 39 40 26 4 3 86 122 87 42 121 90 10 41 22 40 39 61 64 63 162 94 65 66 3 41 10 167 127 95 44 24 4 45 47 49 97 24 44 28 72 29 0 34 2 72 28 47 68 47 45 6 30 52 74 5 49 30 15 5 32 51 33 73 50 74 104 75 77 111 51 80 75 78 52 54 53 111 7 6 32 7 32 33 18 33 20 37 56 57 188 81 113 51 111 53 38 116 58 58 57 56 79 110 55 35 83 56 117 38 85 8 39 9 57 58 116 17 37 57 118 87 88 23 42 91 22 41 21 42 90 123 88 121 42 124 92 125 63 91 42 44 4 12 165 94 124 123 63 42 94 66 11 44 12 67 169 67 93 97 68 45 27 24 45 97 98 68 24 27 13 172 173 268 27 45 49 29 103 73 71 103 29 325 385 219 324 267 382 77 75 31 50 73 103 50 52 30 222 137 220 75 104 78 31 139 77 32 52 16 50 31 52 80 78 109 32 16 51 54 113 35 80 109 145 78 104 109 35 19 54 54 55 113 54 19 53 36 116 60 111 79 55 37 20 56 152 239 151 150 147 149 35 82 83 117 84 195 58 56 83 118 59 87 62 121 88 87 59 86 23 91 40 121 62 120 61 59 118 36 61 39 22 63 64 11 43 126 25 43 66 90 121 160 126 92 11 65 93 66 130 96 128 165 95 94 125 165 124 45 24 97 67 131 97 98 97 131 66 12 25 212 132 98 174 265 173 136 134 268 68 69 47 70 100 134 46 100 70 49 47 28 72 134 101 103 71 48 178 77 105 135 101 136 29 101 71 33 53 19 76 108 104 179 140 108 186 229 228 186 143 230 142 179 106 77 76 104 76 179 108 104 108 109 187 145 232 143 145 109 191 150 190 79 111 80 83 38 58 282 146 110 82 114 81 20 19 56 114 35 113 116 36 8 239 85 115 83 85 38 153 84 239 117 85 84 116 38 117 86 59 154 60 154 59 62 87 122 122 86 155 118 88 23 89 122 155 199 89 119 120 89 199 89 62 122 43 10 22 40 61 23 161 159 251 88 42 23 206 125 207 126 162 92 162 123 252 167 128 127 65 96 93 205 92 252 166 167 95 128 96 127 130 261 169 168 129 211 12 66 93 134 72 70 169 131 67 69 46 70 69 133 46 129 130 128 170 212 261 29 72 101 174 173 172 218 173 265 70 47 69 176 102 135 71 102 48 138 221 137 177 137 272 102 71 101 180 178 223 221 48 102 31 103 139 140 107 230 275 274 226 106 178 180 183 276 182 139 105 77 179 107 140 80 145 79 184 186 228 143 232 145 108 140 143 6 52 32 187 79 145 146 234 188 107 229 230 112 192 81 149 190 150 234 147 112 287 190 149 146 113 55 81 188 112 35 114 82 192 112 148 84 85 239 83 82 85 115 151 239 117 154 60 196 244 197 23 61 118 8 36 39 155 197 156 86 197 155 158 203 157 200 199 354 157 203 120 199 157 120 120 160 121 89 155 156 123 90 159 251 204 161 252 123 161 123 162 63 123 159 161 160 159 90 206 207 254 127 94 95 207 125 205 127 65 94 166 164 209 206 254 163 129 128 210 164 166 163 4 26 12 258 259 211 210 128 167 212 170 132 96 65 127 212 98 131 68 98 69 261 212 169 46 217 172 170 171 132 171 264 99 69 98 133 220 137 221 319 174 217 175 268 218 139 103 48 176 385 220 105 48 138 180 327 273 28 73 74 50 103 31 28 29 73 107 179 142 178 105 223 178 76 77 142 106 225 274 275 224 390 277 141 225 141 142 183 229 107 186 184 232 336 279 280 232 144 187 16 80 51 54 111 55 143 186 232 281 184 334 113 146 188 233 147 234 185 231 282 151 194 193 81 115 82 344 189 235 81 114 113 188 234 112 151 193 152 285 341 149 288 237 194 115 85 82 115 192 151 194 151 148 243 242 348 194 237 193 195 154 117 292 84 153 196 197 195 195 197 154 295 299 119 198 296 297 203 160 120 203 159 160 88 87 62 200 157 199 354 119 299 358 250 248 360 421 359 250 358 357 298 358 201 202 158 248 251 304 204 43 11 66 92 162 252 126 64 162 304 305 253 63 22 91 426 254 257 92 124 11 163 95 165 365 364 256 255 207 253 129 168 260 163 166 95 433 312 371 169 93 96 169 96 130 168 259 313 316 213 374 264 171 216 215 262 263 214 213 316 46 133 99 216 170 214 133 98 132 378 174 441 100 268 134 217 46 99 444 321 380 100 172 268 175 135 136 136 268 175 101 135 102 176 219 385 220 221 176 137 222 272 106 76 178 387 329 327 181 141 225 180 273 225 106 180 225 177 327 223 330 521 523 331 393 394 227 276 183 456 275 226 182 395 333 277 276 227 224 181 225 393 459 394 283 339 338 394 459 460 333 228 229 108 143 109 185 282 110 234 282 233 231 233 282 148 112 150 110 146 55 194 148 191 233 339 285 190 288 191 235 189 236 343 235 403 344 289 237 289 346 290 343 622 404 239 152 153 289 290 238 191 288 194 152 242 153 84 292 195 148 151 192 292 243 196 153 242 243 243 294 196 193 241 152 196 195 292 154 197 86 296 295 244 202 248 302 351 411 353 201 248 158 249 357 358 158 157 200 354 245 417 201 158 200 202 159 203 295 119 156 251 202 302 202 203 158 358 298 247 253 305 255 252 204 205 495 568 306 255 426 257 164 163 208 207 205 253 253 205 204 206 165 125 163 254 208 167 166 210 368 311 258 369 258 311 309 428 429 210 166 368 211 129 210 313 213 168 132 171 99 170 261 260 129 260 130 262 314 437 216 214 316 316 215 216 215 263 318 130 260 261 319 264 318 440 441 319 99 264 217 216 215 264 321 323 320 217 264 319 218 268 173 174 172 217 516 383 325 1
[...]
<PointData Scalars="vertices_idx">
<DataArray type="Int64" Name="vertices_idx" format="ascii">0 1 2 3 4 5 6 7 8 9 10 11 12 13 14 15 16 17 18 19 20 21 22 23 24 25 26 27 28 29 30 31 32 33 34 35 36 37 38 39 40 41 42 43 44 45 46 47 48 49 50 51 52 53 54 55 56 57 58 59 60 61 62 63 64 65 66 67 68 69 70 71 72 73 74 75 76 77 78 79 80 81 82 83 84 85 86 87 88 89 90 91 92 93 94 95 96 97 98 99 100 101 102 103 104 105 106 107 108 109 110 111 112 113 114 115 116 117 118 119 120 121 122 123 124 125 126 127 128 129 130 131 132 133 134 135 136 137 138 139 140 141 142 143 144 145 146 147 148 149 150 151 152 153 154 155 156 157 158 159 160 161 162 163 164 165 166 167 168 169 170 171 172 173 174 175 176 177 178 179 180 181 182 183 184 185 186 187 188 189 190 191 192 193 194 195 196 197 198 199 200 201 202 203 204 205 206 207 208 209 210 211 212 213 214 215 216 217 218 219 220 221 222 223 224 225 226 227 228 229 230 231 232 233 234 235 236 237 238 239 240 241 242 243 244 245 246 247 248 249 250 251 252 253 254 255 256 257 258 259 260 261 262 263 264 265 266 267 268 269 270 271 272 273 274 275 276 277 278 279 280 281 282 283 284 285 286 287 288 289 290 291 292 293 294 295 296 297 298 299 300 301 302 303 304 305 306 307 308 309 310 311 312 313 314 315 316 317 318 319 320 321 322 323 324 325 326 327 328 329 330 331 332 333 334 335 336 337 338 339 340 341 342 343 344 345 346 347 348 349 350 351 352 353 354 355 356 357 358 359 360 361 362 363 364 365 366 367 368 369 370 371 372 373 374 375 376 377 378 379 380 381 382 383 384 385 386 387 388 389 390 391 392 393 394 395 396 397 398 399 400 401 402 403 404 405 406 407 408 409 410 411 412 413 414 415 416 417 418 419 420 421 422 423 424 425 426 427 428 429 430 431 432 433 434 435 436 437 438 439 440 441 442 443 444 445 446 447 448 449 450 451 452 453 454 455 456 457 458 459 460 461 462 463 464 465 466 467 468 469 470 471 472 473 474 475 476 477 478 479 480 481 482 483 484 485 486 487 488 489 490 491 492 493 494 495 496 497 498 499 500 501 502 503 504 505 506 507 508 509 510 511 512 513 514 515 516 517 518 519 520 521 522 523 524 525 526 527 528 529 530 531 532 533 534 535 536 537 538 539 540 541 542 543 544 545 546 547 548 549 550 551 552 553 554 555 556 557 558 559 560 561 562 563 564 565 566 567 568 569 570 571 572 573 574 575 576 577 578 579 580 581 582 583 584 585 586 587 588 589 590 591 592 593 594 595 596 597 598 599 600 601 602 603 604 605 606 607 608 609 610 611 612 613 614 615 616 617 618 619 620 621 622 623 624 625 626 627 628 629 630 631 632 633 634 635 636 637 638 639 640 641 642 643 644 645 646 647 648 649 650 651 652 653 654 655 656 657 658 659 660 661 662 663 664 665 666 667 668 669 670 671 672 673 674 675 676 677 678 679 680 681 682 683 684 685 686 687 688 689 690 691 692 693 694 695 696 697 698 699 700 701 702 703 704 705 706 707 708 709 710 711 712 713 714 715 716 717 718 719 720 721 722 723 724 725 726 727 728 729 730 731 732 733 734 735 736 737 738 739 740 741 742 743 744 745 746 747 748 749 750 751 752 753 754 755 756 757 758 759 760 761 762 763 764 765 766 767 768 769 770 771 772 773 774 775 776 777 778 779 780 781 782 783 784 785 786 787 788 789 790 791 792 793 794 795 796 797 798 799 800 801 802 803 804 805 806 807 808 809 810 811 812 813 814 815 816 817 818 819 820 821 822 823 824 825 826 827 828 829 830 831 832 833 834 835 836 837 838 839 840 841 842 843 844 845 846 847 848 849 850 851 852 853 854 855 856 857 858 859 860 861 862 863 864 865 866 867 868 869 870 871 872 873 874 875 876 877 878 879 880 881 882 883 884 885 886 887 888 889 890 891 892 893 894 895 896 897 898 899 900 901 902 903 904 905 906 907 908 909 910 911 912 913 914 915 916 917 918 919 920 921 922 923 924 925 926 927 928 929 930 931 932 933 934 935 936 937 938 939 940 941 942 943 944 945 946 947 948 949 950 951 952 953 954 955 956 957 958 959 960 961 962 963 964 965 966 967 968 969 970 971 972 973 974 975 976 977 978 979 980 981 982 983 984 985 986 987 988 989 990 991 992 993 994 995 996 997 998 999 1000 1001 1002 1003 1004 1005 1006 1007 1008 1009 1010 1011 1012 1013 1014 1015 1016 1017 1018 1019 1020 1021 1022 1023 1024 1025 1026 1027 1028 1029 1030 1031 1032 1033 1034 1035 1036 1037 1038 1039 1040 1041 1042 1043 1044 1045 1046 1047 1048 1049 1050 1051 1052 1053 1054 1055 1056 1057 1058 1059 1060 1061 1062 1063 1064 1065 1066 1067 1068 1069 1070 1071 1072 1073 1074 1075 1076 1077 1078 1079 1080 1081 1082 1083 1084 1085 1086 1087 1088 1089 1090 1091 1092 1093 1094 1095 1096 1097 1098 1099 1100 1101 1102 1103 1104 1105 1106 1107 1108 1109 1110 1111 1112 1113 1114 1115 1116 1117 1118 1119 1120 1121 1122 1123 1124 1125 1126 1127 1128 1129 1130 1131 1132 1133 1134 1135 1136 1137 1138 1139 1140 1141 1142 1143 1144 1145 1146 1147 1148 1149 1150 1151 1152 1153 1154 1155 1156 1157 1158 1159 1160 1161 1162 1163 1164 1165 1166 1167 1168 1169 1170 1171 1172 1173 1174 1175 1176 1177 1178 1179 1180 1181 1182 1183 1184 1185 1186 1187 1188 1189 1190 1191 1192 1193 1194 1195 1196 1197 1198 1199 1200 1201 1202 1203 1204 1205 1206 1207 1208 1209 1210 1211 1212 1213 1214 1215 1216 1217 1218 1219 1220 1221 1222 1223 1224 1225 1226 1227 1228 1229 1230 1231 1232 1233 1234 1235 1236 1237 1238 1239 1240 1241 1242 1243 1244 1245 1246 1247 1248 1249 1250 1251 1252 1253 1254 1255 1256 1257 1258 1259 1260 1261 1262 1263 1264 1265 1266 1267 1268 1269 1270 1271 1272 1273 1274 1275 1276 1277 1278 1279 1280 1281 1282 1283 1284 1285 1286 1287 1288 1289 1290 1291 1292 1293 1294 1295 1296 1297 1298 1299 1300 1301 1302 1303 1304 1305 1306 1307 1308 1309 1310 1311 1312 1313 1314 1315 1316 1317 1318 1319 1320 1321 1322 1323 1324 1325 1326 1327 1328 1329 1330 1331 1332 1333 1334 1335 1336 1337 1338 1339 1340 1341 1342 1343 1344 1345 1346 1347 1348 1349 1350 1351 1352 1353 1354 1355 1356 1357 1358 1359 1360 1361 1362 1363 1364 1365 1366 1367 1368 1369 1370 1371 1372 1373 1374 1375 1376 1377 1378 1379 1380 1381 1382 1383 1384 1385 1386 1387 1388 1389 1390 1391 1392 1393 1394 1395 1396 1397 1398 1399 1400 1401 1402 1403 1404 1405 1406 1407 1408 1409 1410 1411 1412 1413 1414 1415 1416 1417 1418 1419 1420 1421 1422 1423 1424 1425 1426 1427 1428 1429 1430 1431 1432 1433 1434 1435 1436 1437 1438 1439 1440 1441 1442 1443 1444 1445 1446 </DataArray>
<DataArray type="Float64" Name="spontaneous_curvature" format="ascii">0.00000000000000000e+00 0.00000000000000000e+00 0.00000000000000000e+00 0.00000000000000000e+00 0.00000000000000000e+00 0.00000000000000000e+00 0.00000000000000000e+00 0.00000000000000000e+00 0.00000000000000000e+00 0.00000000000000000e+00 0.00000000000000000e+00 0.00000000000000000e+00 0.00000000000000000e+00 0.00000000000000000e+00 0.00000000000000000e+00 0.00000000000000000e+00 0.00000000000000000e+00 0.00000000000000000e+00 0.00000000000000000e+00 0.00000000000000000e+00 0.00000000000000000e+00 0.00000000000000000e+00 0.00000000000000000e+00 0.00000000000000000e+00 0.00000000000000000e+00 0.00000000000000000e+00 0.00000000000000000e+00 0.00000000000000000e+00 0.00000000000000000e+00 0.00000000000000000e+00 0.00000000000000000e+00 0.00000000000000000e+00 0.00000000000000000e+00 0.00000000000000000e+00 0.00000000000000000e+00 0.00000000000000000e+00 0.00000000000000000e+00 0.00000000000000000e+00 0.00000000000000000e+00 0.00000000000000000e+00 0.00000000000000000e+00 0.00000000000000000e+00 0.00000000000000000e+00 0.00000000000000000e+00 0.00000000000000000e+00 0.00000000000000000e+00 0.00000000000000000e+00 0.00000000000000000e+00 0.00000000000000000e+00 0.00000000000000000e+00 0.00000000000000000e+00 0.00000000000000000e+00 0.00000000000000000e+00 0.00000000000000000e+00 0.00000000000000000e+00 0.00000000000000000e+00 0.00000000000000000e+00 0.00000000000000000e+00 0.00000000000000000e+00 0.00000000000000000e+00 0.00000000000000000e+00 1.00000000000000000e+00 0.00000000000000000e+00 0.00000000000000000e+00 0.00000000000000000e+00 0.00000000000000000e+00 0.00000000000000000e+00 0.00000000000000000e+00 0.00000000000000000e+00 0.00000000000000000e+00 0.00000000000000000e+00 0.00000000000000000e+00 0.00000000000000000e+00 0.00000000000000000e+00 0.00000000000000000e+00 0.00000000000000000e+00 0.00000000000000000e+00 0.00000000000000000e+00 0.00000000000000000e+00 0.00000000000000000e+00 0.00000000000000000e+00 0.00000000000000000e+00 0.00000000000000000e+00 0.00000000000000000e+00 0.00000000000000000e+00 0.00000000000000000e+00 0.00000000000000000e+00 0.00000000000000000e+00 1.00000000000000000e+00 0.00000000000000000e+00 0.00000000000000000e+00 0.00000000000000000e+00 0.00000000000000000e+00 0.00000000000000000e+00 0.00000000000000000e+00 0.00000000000000000e+00 0.00000000000000000e+00 1.00000000000000000e+00 0.00000000000000000e+00 0.00000000000000000e+00 0.00000000000000000e+00 0.00000000000000000e+00 0.00000000000000000e+00 0.00000000000000000e+00 0.00000000000000000e+00 0.00000000000000000e+00 0.00000000000000000e+00 0.00000000000000000e+00 0.00000000000000000e+00 0.00000000000000000e+00 0.00000000000000000e+00 0.00000000000000000e+00 0.00000000000000000e+00 0.00000000000000000e+00 1.00000000000000000e+00 0.00000000000000000e+00 0.00000000000000000e+00 0.00000000000000000e+00 1.00000000000000000e+00 0.00000000000000000e+00 0.00000000000000000e+00 0.00000000000000000e+00 0.00000000000000000e+00 0.00000000000000000e+00 0.00000000000000000e+00 0.00000000000000000e+00 0.00000000000000000e+00 0.00000000000000000e+00 0.00000000000000000e+00 0.00000000000000000e+00 0.00000000000000000e+00 0.00000000000000000e+00 0.00000000000000000e+00 0.00000000000000000e+00 0.00000000000000000e+00 0.00000000000000000e+00 0.00000000000000000e+00 0.00000000000000000e+00 0.00000000000000000e+00 0.00000000000000000e+00 0.00000000000000000e+00 0.00000000000000000e+00 0.00000000000000000e+00 0.00000000000000000e+00 0.00000000000000000e+00 0.00000000000000000e+00 0.00000000000000000e+00 0.00000000000000000e+00 0.00000000000000000e+00 0.00000000000000000e+00 0.00000000000000000e+00 0.00000000000000000e+00 0.00000000000000000e+00 0.00000000000000000e+00 0.00000000000000000e+00 0.00000000000000000e+00 0.00000000000000000e+00 0.00000000000000000e+00 0.00000000000000000e+00 0.00000000000000000e+00 0.00000000000000000e+00 0.00000000000000000e+00 0.00000000000000000e+00 0.00000000000000000e+00 0.00000000000000000e+00 0.00000000000000000e+00 0.00000000000000000e+00 0.00000000000000000e+00 0.00000000000000000e+00 0.00000000000000000e+00 0.00000000000000000e+00 0.00000000000000000e+00 0.00000000000000000e+00 0.00000000000000000e+00 0.00000000000000000e+00 0.00000000000000000e+00 0.00000000000000000e+00 0.00000000000000000e+00 0.00000000000000000e+00 0.00000000000000000e+00 0.00000000000000000e+00 0.00000000000000000e+00 0.00000000000000000e+00 1.00000000000000000e+00 0.00000000000000000e+00 0.00000000000000000e+00 0.00000000000000000e+00 0.00000000000000000e+00 0.00000000000000000e+00 0.00000000000000000e+00 0.00000000000000000e+00 0.00000000000000000e+00 0.00000000000000000e+00 1.00000000000000000e+00 0.00000000000000000e+00 0.00000000000000000e+00 0.00000000000000000e+00 0.00000000000000000e+00 0.00000000000000000e+00 0.00000000000000000e+00 0.00000000000000000e+00 1.00000000000000000e+00 0.00000000000000000e+00 1.00000000000000000e+00 0.00000000000000000e+00 0.00000000000000000e+00 0.00000000000000000e+00 0.00000000000000000e+00 0.00000000000000000e+00 0.00000000000000000e+00 0.00000000000000000e+00 0.00000000000000000e+00 0.00000000000000000e+00 0.00000000000000000e+00 0.00000000000000000e+00 0.00000000000000000e+00 0.00000000000000000e+00 0.00000000000000000e+00 0.00000000000000000e+00 0.00000000000000000e+00 1.00000000000000000e+00 0.00000000000000000e+00 0.00000000000000000e+00 0.00000000000000000e+00 1.00000000000000000e+00 0.00000000000000000e+00 1.00000000000000000e+00 0.00000000000000000e+00 0.00000000000000000e+00 0.00000000000000000e+00 0.00000000000000000e+00 0.00000000000000000e+00 0.00000000000000000e+00 0.00000000000000000e+00 0.00000000000000000e+00 0.00000000000000000e+00 1.00000000000000000e+00 0.00000000000000000e+00 0.00000000000000000e+00 0.00000000000000000e+00 0.00000000000000000e+00 0.00000000000000000e+00 0.00000000000000000e+00 0.00000000000000000e+00 0.00000000000000000e+00 0.00000000000000000e+00 0.00000000000000000e+00 0.00000000000000000e+00 0.00000000000000000e+00 0.00000000000000000e+00 0.00000000000000000e+00 0.00000000000000000e+00 0.00000000000000000e+00 0.00000000000000000e+00 0.00000000000000000e+00 0.00000000000000000e+00 0.00000000000000000e+00 1.00000000000000000e+00 0.00000000000000000e+00 0.00000000000000000e+00 0.00000000000000000e+00 0.00000000000000000e+00 0.00000000000000000e+00 0.00000000000000000e+00 0.00000000000000000e+00 0.00000000000000000e+00 0.00000000000000000e+00 0.00000000000000000e+00 0.00000000000000000e+00 0.00000000000000000e+00 0.00000000000000000e+00 0.00000000000000000e+00 0.00000000000000000e+00 0.00000000000000000e+00 0.00000000000000000e+00 1.00000000000000000e+00 0.00000000000000000e+00 0.00000000000000000e+00 0.00000000000000000e+00 0.00000000000000000e+00 0.00000000000000000e+00 0.00000000000000000e+00 0.00000000000000000e+00 0.00000000000000000e+00 0.00000000000000000e+00 0.00000000000000000e+00 0.00000000000000000e+00 0.00000000000000000e+00 0.00000000000000000e+00 0.00000000000000000e+00 0.00000000000000000e+00 0.00000000000000000e+00 0.00000000000000000e+00 0.00000000000000000e+00 0.00000000000000000e+00 0.00000000000000000e+00 0.00000000000000000e+00 0.00000000000000000e+00 0.00000000000000000e+00 0.00000000000000000e+00 0.00000000000000000e+00 0.00000000000000000e+00 0.00000000000000000e+00 0.00000000000000000e+00 0.00000000000000000e+00 0.00000000000000000e+00 0.00000000000000000e+00 0.00000000000000000e+00 0.00000000000000000e+00 0.00000000000000000e+00 0.00000000000000000e+00 0.00000000000000000e+00 0.00000000000000000e+00 0.00000000000000000e+00 0.00000000000000000e+00 1.00000000000000000e+00 0.00000000000000000e+00 1.00000000000000000e+00 0.00000000000000000e+00 0.00000000000000000e+00 0.00000000000000000e+00 1.00000000000000000e+00 0.00000000000000000e+00 0.00000000000000000e+00 0.00000000000000000e+00 0.00000000000000000e+00 0.00000000000000000e+00 0.00000000000000000e+00 0.00000000000000000e+00 0.00000000000000000e+00 1.00000000000000000e+00 0.00000000000000000e+00 0.00000000000000000e+00 1.00000000000000000e+00 0.00000000000000000e+00 0.00000000000000000e+00 0.00000000000000000e+00 0.00000000000000000e+00 0.00000000000000000e+00 1.00000000000000000e+00 0.00000000000000000e+00 0.00000000000000000e+00 0.00000000000000000e+00 0.00000000000000000e+00 0.00000000000000000e+00 0.00000000000000000e+00 0.00000000000000000e+00 0.00000000000000000e+00 0.00000000000000000e+00 0.00000000000000000e+00 0.00000000000000000e+00 0.00000000000000000e+00 0.00000000000000000e+00 0.00000000000000000e+00 0.00000000000000000e+00 0.00000000000000000e+00 0.00000000000000000e+00 0.00000000000000000e+00 0.00000000000000000e+00 0.00000000000000000e+00 0.00000000000000000e+00 0.00000000000000000e+00 0.00000000000000000e+00 0.00000000000000000e+00 0.00000000000000000e+00 0.00000000000000000e+00 0.00000000000000000e+00 0.00000000000000000e+00 0.00000000000000000e+00 0.00000000000000000e+00 1.00000000000000000e+00 0.00000000000000000e+00 0.00000000000000000e+00 0.00000000000000000e+00 0.00000000000000000e+00 0.00000000000000000e+00 0.00000000000000000e+00 0.00000000000000000e+00 0.00000000000000000e+00 0.00000000000000000e+00 0.00000000000000000e+00 0.00000000000000000e+00 0.00000000000000000e+00 0.00000000000000000e+00 0.00000000000000000e+00 0.00000000000000000e+00 0.00000000000000000e+00 1.00000000000000000e+00 0.00000000000000000e+00 0.00000000000000000e+00 0.00000000000000000e+00 0.00000000000000000e+00 0.00000000000000000e+00 0.00000000000000000e+00 0.00000000000000000e+00 0.00000000000000000e+00 0.00000000000000000e+00 0.00000000000000000e+00 0.00000000000000000e+00 0.00000000000000000e+00 0.00000000000000000e+00 0.00000000000000000e+00 0.00000000000000000e+00 0.00000000000000000e+00 0.00000000000000000e+00 0.00000000000000000e+00 0.00000000000000000e+00 0.00000000000000000e+00 1.00000000000000000e+00 0.00000000000000000e+00 0.00000000000000000e+00 0.00000000000000000e+00 1.00000000000000000e+00 0.00000000000000000e+00 0.00000000000000000e+00 0.00000000000000000e+00 0.00000000000000000e+00 0.00000000000000000e+00 0.00000000000000000e+00 0.00000000000000000e+00 0.00000000000000000e+00 0.00000000000000000e+00 0.00000000000000000e+00 0.00000000000000000e+00 0.00000000000000000e+00 0.00000000000000000e+00 0.00000000000000000e+00 0.00000000000000000e+00 0.00000000000000000e+00 0.00000000000000000e+00 0.00000000000000000e+00 0.00000000000000000e+00 0.00000000000000000e+00 0.00000000000000000e+00 0.00000000000000000e+00 0.00000000000000000e+00 0.00000000000000000e+00 0.00000000000000000e+00 0.00000000000000000e+00 0.00000000000000000e+00 0.00000000000000000e+00 0.00000000000000000e+00 0.00000000000000000e+00 0.00000000000000000e+00 0.00000000000000000e+00 1.00000000000000000e+00 0.00000000000000000e+00 0.00000000000000000e+00 0.00000000000000000e+00 0.00000000000000000e+00 0.00000000000000000e+00 0.00000000000000000e+00 0.00000000000000000e+00 0.00000000000000000e+00 0.00000000000000000e+00 0.00000000000000000e+00 0.00000000000000000e+00 0.00000000000000000e+00 0.00000000000000000e+00 0.00000000000000000e+00 0.00000000000000000e+00 0.00000000000000000e+00 0.00000000000000000e+00 0.00000000000000000e+00 0.00000000000000000e+00 0.00000000000000000e+00 0.00000000000000000e+00 0.00000000000000000e+00 0.00000000000000000e+00 0.00000000000000000e+00 0.00000000000000000e+00 0.00000000000000000e+00 1.00000000000000000e+00 1.00000000000000000e+00 0.00000000000000000e+00 0.00000000000000000e+00 0.00000000000000000e+00 1.00000000000000000e+00 0.00000000000000000e+00 0.00000000000000000e+00 1.00000000000000000e+00 0.00000000000000000e+00 0.00000000000000000e+00 0.00000000000000000e+00 1.00000000000000000e+00 0.00000000000000000e+00 0.00000000000000000e+00 0.00000000000000000e+00 0.00000000000000000e+00 0.00000000000000000e+00 1.00000000000000000e+00 0.00000000000000000e+00 0.00000000000000000e+00 0.00000000000000000e+00 0.00000000000000000e+00 0.00000000000000000e+00 0.00000000000000000e+00 0.00000000000000000e+00 0.00000000000000000e+00 0.00000000000000000e+00 1.00000000000000000e+00 0.00000000000000000e+00 0.00000000000000000e+00 0.00000000000000000e+00 0.00000000000000000e+00 1.00000000000000000e+00 0.00000000000000000e+00 0.00000000000000000e+00 0.00000000000000000e+00 0.00000000000000000e+00 0.00000000000000000e+00 0.00000000000000000e+00 1.00000000000000000e+00 0.00000000000000000e+00 0.00000000000000000e+00 0.00000000000000000e+00 0.00000000000000000e+00 1.00000000000000000e+00 0.00000000000000000e+00 0.00000000000000000e+00 0.00000000000000000e+00 0.00000000000000000e+00 0.00000000000000000e+00 0.00000000000000000e+00 0.00000000000000000e+00 0.00000000000000000e+00 0.00000000000000000e+00 1.00000000000000000e+00 1.00000000000000000e+00 0.00000000000000000e+00 1.00000000000000000e+00 0.00000000000000000e+00 0.00000000000000000e+00 1.00000000000000000e+00 1.00000000000000000e+00 0.00000000000000000e+00 0.00000000000000000e+00 0.00000000000000000e+00 0.00000000000000000e+00 0.00000000000000000e+00 1.00000000000000000e+00 0.00000000000000000e+00 0.00000000000000000e+00 0.00000000000000000e+00 1.00000000000000000e+00 0.00000000000000000e+00 0.00000000000000000e+00 0.00000000000000000e+00 0.00000000000000000e+00 0.00000000000000000e+00 0.00000000000000000e+00 0.00000000000000000e+00 0.00000000000000000e+00 0.00000000000000000e+00 0.00000000000000000e+00 0.00000000000000000e+00 0.00000000000000000e+00 0.00000000000000000e+00 0.00000000000000000e+00 0.00000000000000000e+00 0.00000000000000000e+00 0.00000000000000000e+00 0.00000000000000000e+00 0.00000000000000000e+00 0.00000000000000000e+00 0.00000000000000000e+00 0.00000000000000000e+00 0.00000000000000000e+00 0.00000000000000000e+00 1.00000000000000000e+00 0.0000000000000000