<?xml version="1.0"?>
<VTKFile type="UnstructuredGrid" version="0.1" byte_order="LittleEndian" compressor="vtkZLibDataCompressor">
<trisurfversion>Trisurf (commit ), compiled on Aug  2 2022 16:20:21</trisurfversion>
<dumpdate>Tue Aug  2 16:31:30 2022
</dumpdate>
<tape>####### Vesicle definitions ###########
# nshell is a number of divisions of dipyramid
nshell=17
# dmax is the max. bond length (in units l_min)
dmax=1.7
# dmin_interspecies in the min. dist. between different vertex species (in units l_min)
dmin_interspecies=1.2
# bending rigidity of the membrane (in units kT)
xk0=20.0
# max step size (in units l_min)
stepsize=0.15

# Pressure calculations
# (pswitch=1: calc. p*dV energy contribution)
pswitch = 0
# pressure difference: p_inside - p_outside (in units kT/l_min^3):
pressure=0.1

#Constant volume constraint (0 disable constant volume, 1 enable wiht additional vertex move, 2 enable with epsvol)
constvolswitch=0
constvolprecision=1e-14

#Constant area constraint (0 disable constant area, 2 enable constant area with epsarea)
constareaswitch=0


#Stretching
stretchswitch=0
xkA0=0.0

####### Polymer (brush) definitions ###########
# npoly is a number of polymers attached to npoly distinct vertices on vesicle
npoly=0
# nmono is a number of monomers in each polymer
nmono=20
# Spring constant between monomers of the polymer
k_spring=800
#set to 1 if half of the polymeres are inside the vesicle
internal_poly=0

####### Filament (inside the vesicle) definitions ###########
# nfil is a number of filaments inside the vesicle
nfil=0
# nfono is a number of monomers in each filament
nfono=3
# Persistence lenght of the filaments (in units l_min)
xi=100

####### Nucleus (inside the vesicle) ###########
# Radius of an impenetrable hard sphere inside the vesicle
R_nucleus=0
R_nucleusX=0
R_nucleusY=0
R_nucleusZ=0
#######  Cell definitions ############
nxmax=100
nymax=100
nzmax=100


####### Program Control ############
#how many MC sweeps between subsequent records of states to disk
#200000
mcsweeps=2000
#how many initial mcsweeps*inititer MC sweeps before recording to disk?
#2
inititer=0
#how many records do you want on the disk iteration are there in a run?
#10000
iterations=10


###### Spherical harmonics ###########
# If 0 then spherical harmonics are not calculated at all.
spherical_harmonics_coefficients=21

#shut up if we are using cluster!!!
quiet=false
 


#what type of multiprocessing? (*none, smp, cluster, distributed, cuda, auto)
#currently only none makes sense.
multiprocessing=none
#how many cores are allowed to process in SMP?
smp_cores=2
#how many nodes in cluster?
cluster_nodes=50
#max number of processes in distributed (voluntary) environment
distributed_processes=50
#cuda options???


#number of vertices with spontaneous curvature (integer)
number_of_vertices_with_c0=100
#c0/2 is spontaneous curvature. c0 is used as (c1+c1-c0)^2 in energy term (float)
c0=1.0
#energy of attraction of vertices with spontaneous curvature (float, positive value for attraction)
w=1.0
#direct force on vesicles with spontaneous curvature (float)
F=0.5
# direct force noise_switch
F_noise_switch=1
#F_noise_mean=0.5
F_noise_SD=0.1

#plane confinement; two plates between the substrate-vesicle system, upper plate in moving downwards untill plan_d, lower plate is stationary
plane_confinement_switch=0
#final plane distance (float in lmin)
plane_d=10
#plane to vesicle repulsion force while closing
plane_F=1.0

#some important parameters
#which type of adhesion model do you want; step_potential (1), parabolic potential (2) , for shperical surface with step potential (3), for cylindrical (along y-axis) surface with step potential (4)
#cylinder along x-axis, choose (5)
type_of_adhesion_model=1
#do you want to see any crawling motion on x-y plane, then choose 1, 0 otherwise; only for flate and cylindrical substrate 
allow_xy_plane_movement=0
#in active case, we need to apply an external force in the z-direction for overall force balance along z-direction, choose 1 if you want this, 0 otherwise
force_balance_along_z_axis=0


#Adhesion
adhesion_switch=1
#potential range (float in lmin)
adhesion_cuttoff=1
#adhesion energy per unit area or per vertex
adhesion_strength=3.0
#radius of the sphere or cylinder; for a flate substarte, choose it to be zero
adhesion_radius=0.0
#position of the adhesive surface
z_adhesion= -10.72493
#choose z_adhesion depending on nshell
#17, -10.724914687230324 
#18, -11.355792021773285 
#19, -11.986669356316245 
#20, -12.617546690859205 
#25, -15.771933363574005 
#27, -17.033688032659928 
#29, -18.29544270174585 
#31, -19.55719737083177 
#33, -20.818952039917686 



# Shear force at each point Fx=az+b
shear_switch=1
a=0.01
b=0.
nx=1
ny=1


</tape>
<trisurf nvtx="1447" npoly="0" nmono="0" compressed="false">
<tria>9 0 2 7 2 0 4 11 12 1 13 14 15 7 1 4 13 3 29 74 49 7 32 34 7 0 1 17 34 20 8 17 20 89 23 62 9 21 3 43 25 41 3 41 11 1 0 13 14 4 26 13 0 3 45 27 14 5 27 28 30 31 52 22 37 39 15 49 6 15 6 7 16 51 32 32 18 34 2 7 34 37 20 56 17 8 2 22 21 9 8 22 9 40 10 21 89 62 118 41 3 21 65 43 64 66 25 65 67 24 44 4 14 13 14 26 45 26 4 44 5 14 27 46 69 70 29 28 47 30 6 49 49 28 29 1 5 15 139 50 73 7 6 32 6 30 16 9 2 8 20 18 19 17 2 34 18 32 33 82 35 113 56 20 19 37 56 57 38 87 61 0 9 3 37 36 39 114 57 56 41 21 10 86 87 60 90 121 63 10 43 41 40 22 39 43 42 64 43 65 25 25 12 11 68 67 96 4 12 44 45 46 27 68 131 97 47 28 27 5 1 14 73 29 48 46 70 47 30 74 50 15 5 28 49 15 28 16 52 51 50 31 30 139 104 50 52 16 30 50 104 31 33 53 80 54 19 18 6 16 32 51 33 32 20 34 18 35 82 114 54 80 55 113 83 82 38 36 59 55 146 81 37 22 8 59 60 38 37 8 20 59 58 116 57 36 37 36 38 39 10 62 23 22 40 21 90 23 89 90 63 23 94 66 65 42 91 64 3 11 4 92 91 124 91 42 63 25 11 41 67 44 66 96 169 131 97 45 24 24 68 97 97 131 69 26 24 45 97 69 46 29 47 72 72 70 71 101 136 71 102 103 48 176 102 135 30 49 74 73 50 74 75 52 31 178 105 223 109 75 76 104 75 31 75 78 52 51 52 78 75 109 78 33 51 53 19 54 35 80 53 79 79 53 78 55 81 35 55 35 54 18 33 54 57 114 58 110 80 79 57 58 59 239 115 151 117 85 84 85 60 59 117 154 85 58 114 82 60 87 38 39 61 40 61 118 62 40 61 62 122 90 89 40 62 10 39 38 61 91 123 124 43 10 42 25 66 12 42 10 23 125 126 92 66 94 93 93 96 67 95 93 94 94 65 126 96 95 128 44 12 66 68 24 67 66 93 67 132 98 131 99 133 100 99 71 70 69 99 70 71 100 101 100 71 99 101 135 136 134 135 101 48 103 73 104 105 77 139 73 103 48 29 72 33 80 54 77 76 75 229 143 140 182 228 183 140 143 108 106 107 179 75 104 77 76 108 109 77 179 76 145 110 79 108 145 109 113 148 192 55 110 146 35 114 19 80 110 55 148 113 112 114 56 19 83 58 82 36 57 59 113 192 83 84 83 115 153 84 152 195 117 153 154 60 85 116 85 59 86 60 154 86 155 88 119 88 156 88 118 86 120 122 119 88 119 122 120 119 157 120 121 122 42 23 63 61 87 118 124 123 161 63 121 123 92 162 125 92 126 64 161 204 162 94 126 127 95 94 127 164 206 208 167 129 128 130 128 129 167 127 165 130 211 168 93 95 96 46 47 27 96 131 68 97 46 45 133 99 98 131 169 132 98 132 171 101 100 173 100 133 172 174 134 173 72 47 70 71 136 72 136 48 72 136 135 102 272 177 137 221 103 102 138 137 223 221 222 137 105 104 139 140 76 179 328 274 273 178 106 179 142 183 107 179 107 140 225 142 107 109 145 79 143 229 184 145 108 144 108 143 144 51 78 53 186 187 146 111 81 146 108 76 140 111 112 81 285 149 147 113 81 112 235 189 287 81 113 35 111 147 112 83 116 58 239 193 291 115 152 84 84 116 83 239 241 152 195 154 117 117 84 153 88 89 118 87 86 118 155 154 197 156 197 244 120 157 203 244 295 198 160 121 203 119 199 157 160 123 121 122 121 90 251 204 161 124 162 92 161 123 160 123 91 63 161 160 251 203 121 120 207 206 163 127 125 163 206 165 163 126 125 127 129 166 210 206 254 208 129 210 211 167 95 127 26 44 24 167 166 129 95 167 128 169 128 130 169 96 128 212 132 169 98 69 131 132 170 171 217 216 264 171 133 98 133 216 172 98 99 69 176 222 221 172 174 173 134 218 268 136 102 48 220 219 325 138 103 221 180 223 177 139 103 138 105 139 138 74 29 73 107 183 140 223 105 138 77 105 178 106 225 107 181 141 275 275 224 330 142 225 141 229 140 183 185 186 144 281 184 230 184 144 143 79 78 109 186 146 110 144 186 145 184 281 185 188 111 187 234 188 187 233 234 282 151 148 150 148 112 147 149 150 148 190 150 149 147 188 285 151 150 194 147 149 148 190 235 191 83 192 115 239 152 115 151 194 239 242 292 196 238 193 191 84 85 116 196 195 153 154 155 86 197 154 195 156 198 199 199 198 245 158 203 157 201 248 158 89 88 122 199 299 201 156 88 155 248 202 158 250 248 249 203 158 159 202 302 159 159 160 203 251 304 204 126 65 64 205 125 162 124 161 162 205 162 252 92 64 91 305 306 255 166 164 209 164 166 165 307 257 365 365 257 208 129 211 130 167 165 166 310 311 258 130 212 169 130 168 212 168 211 313 260 213 261 171 170 215 170 261 214 263 316 377 133 171 216 216 171 215 132 212 170 217 319 265 101 173 134 173 100 172 265 218 174 135 268 175 175 268 269 268 135 134 175 176 135 176 175 220 222 270 272 270 271 272 106 178 223 328 177 272 273 180 177 225 224 141 180 106 223 225 106 180 275 330 226 276 227 277 182 141 227 181 275 277 228 182 278 141 182 142 183 142 182 461 332 460 336 231 281 229 183 228 184 229 230 186 110 145 231 282 232 232 187 186 187 232 234 188 147 111 146 187 111 189 149 285 189 190 149 236 237 235 237 343 288 287 342 236 238 191 237 290 289 346 345 344 622 192 148 151 238 290 193 194 191 193 240 348 242 242 153 241 151 115 192 196 294 195 242 196 153 292 350 243 291 240 241 197 195 294 156 155 197 156 199 119 248 201 200 244 294 296 298 245 297 358 247 357 200 201 299 200 298 247 201 158 157 158 202 159 199 201 157 302 202 250 159 302 251 202 248 250 204 304 253 162 204 252 363 305 253 163 205 207 207 254 206 207 252 253 254 207 305 127 163 165 254 255 208 206 164 165 256 311 310 209 258 210 310 257 307 210 166 209 258 211 210 313 211 259 212 261 170 168 261 212 261 168 260 374 371 315 214 263 215 263 214 316 216 215 264 170 214 215 263 264 215 441 319 318 265 174 217 217 172 216 218 265 266 320 265 319 174 218 134 267 323 266 219 220 175 220 3
[...]
<PointData Scalars="vertices_idx">
<DataArray type="Int64" Name="vertices_idx" format="ascii">0 1 2 3 4 5 6 7 8 9 10 11 12 13 14 15 16 17 18 19 20 21 22 23 24 25 26 27 28 29 30 31 32 33 34 35 36 37 38 39 40 41 42 43 44 45 46 47 48 49 50 51 52 53 54 55 56 57 58 59 60 61 62 63 64 65 66 67 68 69 70 71 72 73 74 75 76 77 78 79 80 81 82 83 84 85 86 87 88 89 90 91 92 93 94 95 96 97 98 99 100 101 102 103 104 105 106 107 108 109 110 111 112 113 114 115 116 117 118 119 120 121 122 123 124 125 126 127 128 129 130 131 132 133 134 135 136 137 138 139 140 141 142 143 144 145 146 147 148 149 150 151 152 153 154 155 156 157 158 159 160 161 162 163 164 165 166 167 168 169 170 171 172 173 174 175 176 177 178 179 180 181 182 183 184 185 186 187 188 189 190 191 192 193 194 195 196 197 198 199 200 201 202 203 204 205 206 207 208 209 210 211 212 213 214 215 216 217 218 219 220 221 222 223 224 225 226 227 228 229 230 231 232 233 234 235 236 237 238 239 240 241 242 243 244 245 246 247 248 249 250 251 252 253 254 255 256 257 258 259 260 261 262 263 264 265 266 267 268 269 270 271 272 273 274 275 276 277 278 279 280 281 282 283 284 285 286 287 288 289 290 291 292 293 294 295 296 297 298 299 300 301 302 303 304 305 306 307 308 309 310 311 312 313 314 315 316 317 318 319 320 321 322 323 324 325 326 327 328 329 330 331 332 333 334 335 336 337 338 339 340 341 342 343 344 345 346 347 348 349 350 351 352 353 354 355 356 357 358 359 360 361 362 363 364 365 366 367 368 369 370 371 372 373 374 375 376 377 378 379 380 381 382 383 384 385 386 387 388 389 390 391 392 393 394 395 396 397 398 399 400 401 402 403 404 405 406 407 408 409 410 411 412 413 414 415 416 417 418 419 420 421 422 423 424 425 426 427 428 429 430 431 432 433 434 435 436 437 438 439 440 441 442 443 444 445 446 447 448 449 450 451 452 453 454 455 456 457 458 459 460 461 462 463 464 465 466 467 468 469 470 471 472 473 474 475 476 477 478 479 480 481 482 483 484 485 486 487 488 489 490 491 492 493 494 495 496 497 498 499 500 501 502 503 504 505 506 507 508 509 510 511 512 513 514 515 516 517 518 519 520 521 522 523 524 525 526 527 528 529 530 531 532 533 534 535 536 537 538 539 540 541 542 543 544 545 546 547 548 549 550 551 552 553 554 555 556 557 558 559 560 561 562 563 564 565 566 567 568 569 570 571 572 573 574 575 576 577 578 579 580 581 582 583 584 585 586 587 588 589 590 591 592 593 594 595 596 597 598 599 600 601 602 603 604 605 606 607 608 609 610 611 612 613 614 615 616 617 618 619 620 621 622 623 624 625 626 627 628 629 630 631 632 633 634 635 636 637 638 639 640 641 642 643 644 645 646 647 648 649 650 651 652 653 654 655 656 657 658 659 660 661 662 663 664 665 666 667 668 669 670 671 672 673 674 675 676 677 678 679 680 681 682 683 684 685 686 687 688 689 690 691 692 693 694 695 696 697 698 699 700 701 702 703 704 705 706 707 708 709 710 711 712 713 714 715 716 717 718 719 720 721 722 723 724 725 726 727 728 729 730 731 732 733 734 735 736 737 738 739 740 741 742 743 744 745 746 747 748 749 750 751 752 753 754 755 756 757 758 759 760 761 762 763 764 765 766 767 768 769 770 771 772 773 774 775 776 777 778 779 780 781 782 783 784 785 786 787 788 789 790 791 792 793 794 795 796 797 798 799 800 801 802 803 804 805 806 807 808 809 810 811 812 813 814 815 816 817 818 819 820 821 822 823 824 825 826 827 828 829 830 831 832 833 834 835 836 837 838 839 840 841 842 843 844 845 846 847 848 849 850 851 852 853 854 855 856 857 858 859 860 861 862 863 864 865 866 867 868 869 870 871 872 873 874 875 876 877 878 879 880 881 882 883 884 885 886 887 888 889 890 891 892 893 894 895 896 897 898 899 900 901 902 903 904 905 906 907 908 909 910 911 912 913 914 915 916 917 918 919 920 921 922 923 924 925 926 927 928 929 930 931 932 933 934 935 936 937 938 939 940 941 942 943 944 945 946 947 948 949 950 951 952 953 954 955 956 957 958 959 960 961 962 963 964 965 966 967 968 969 970 971 972 973 974 975 976 977 978 979 980 981 982 983 984 985 986 987 988 989 990 991 992 993 994 995 996 997 998 999 1000 1001 1002 1003 1004 1005 1006 1007 1008 1009 1010 1011 1012 1013 1014 1015 1016 1017 1018 1019 1020 1021 1022 1023 1024 1025 1026 1027 1028 1029 1030 1031 1032 1033 1034 1035 1036 1037 1038 1039 1040 1041 1042 1043 1044 1045 1046 1047 1048 1049 1050 1051 1052 1053 1054 1055 1056 1057 1058 1059 1060 1061 1062 1063 1064 1065 1066 1067 1068 1069 1070 1071 1072 1073 1074 1075 1076 1077 1078 1079 1080 1081 1082 1083 1084 1085 1086 1087 1088 1089 1090 1091 1092 1093 1094 1095 1096 1097 1098 1099 1100 1101 1102 1103 1104 1105 1106 1107 1108 1109 1110 1111 1112 1113 1114 1115 1116 1117 1118 1119 1120 1121 1122 1123 1124 1125 1126 1127 1128 1129 1130 1131 1132 1133 1134 1135 1136 1137 1138 1139 1140 1141 1142 1143 1144 1145 1146 1147 1148 1149 1150 1151 1152 1153 1154 1155 1156 1157 1158 1159 1160 1161 1162 1163 1164 1165 1166 1167 1168 1169 1170 1171 1172 1173 1174 1175 1176 1177 1178 1179 1180 1181 1182 1183 1184 1185 1186 1187 1188 1189 1190 1191 1192 1193 1194 1195 1196 1197 1198 1199 1200 1201 1202 1203 1204 1205 1206 1207 1208 1209 1210 1211 1212 1213 1214 1215 1216 1217 1218 1219 1220 1221 1222 1223 1224 1225 1226 1227 1228 1229 1230 1231 1232 1233 1234 1235 1236 1237 1238 1239 1240 1241 1242 1243 1244 1245 1246 1247 1248 1249 1250 1251 1252 1253 1254 1255 1256 1257 1258 1259 1260 1261 1262 1263 1264 1265 1266 1267 1268 1269 1270 1271 1272 1273 1274 1275 1276 1277 1278 1279 1280 1281 1282 1283 1284 1285 1286 1287 1288 1289 1290 1291 1292 1293 1294 1295 1296 1297 1298 1299 1300 1301 1302 1303 1304 1305 1306 1307 1308 1309 1310 1311 1312 1313 1314 1315 1316 1317 1318 1319 1320 1321 1322 1323 1324 1325 1326 1327 1328 1329 1330 1331 1332 1333 1334 1335 1336 1337 1338 1339 1340 1341 1342 1343 1344 1345 1346 1347 1348 1349 1350 1351 1352 1353 1354 1355 1356 1357 1358 1359 1360 1361 1362 1363 1364 1365 1366 1367 1368 1369 1370 1371 1372 1373 1374 1375 1376 1377 1378 1379 1380 1381 1382 1383 1384 1385 1386 1387 1388 1389 1390 1391 1392 1393 1394 1395 1396 1397 1398 1399 1400 1401 1402 1403 1404 1405 1406 1407 1408 1409 1410 1411 1412 1413 1414 1415 1416 1417 1418 1419 1420 1421 1422 1423 1424 1425 1426 1427 1428 1429 1430 1431 1432 1433 1434 1435 1436 1437 1438 1439 1440 1441 1442 1443 1444 1445 1446 </DataArray>
<DataArray type="Float64" Name="spontaneous_curvature" format="ascii">0.00000000000000000e+00 0.00000000000000000e+00 0.00000000000000000e+00 0.00000000000000000e+00 0.00000000000000000e+00 0.00000000000000000e+00 0.00000000000000000e+00 0.00000000000000000e+00 0.00000000000000000e+00 0.00000000000000000e+00 0.00000000000000000e+00 0.00000000000000000e+00 0.00000000000000000e+00 0.00000000000000000e+00 0.00000000000000000e+00 0.00000000000000000e+00 0.00000000000000000e+00 0.00000000000000000e+00 0.00000000000000000e+00 0.00000000000000000e+00 0.00000000000000000e+00 0.00000000000000000e+00 0.00000000000000000e+00 0.00000000000000000e+00 0.00000000000000000e+00 0.00000000000000000e+00 0.00000000000000000e+00 0.00000000000000000e+00 0.00000000000000000e+00 0.00000000000000000e+00 0.00000000000000000e+00 0.00000000000000000e+00 0.00000000000000000e+00 0.00000000000000000e+00 0.00000000000000000e+00 0.00000000000000000e+00 0.00000000000000000e+00 0.00000000000000000e+00 0.00000000000000000e+00 0.00000000000000000e+00 0.00000000000000000e+00 0.00000000000000000e+00 0.00000000000000000e+00 0.00000000000000000e+00 0.00000000000000000e+00 0.00000000000000000e+00 0.00000000000000000e+00 0.00000000000000000e+00 0.00000000000000000e+00 0.00000000000000000e+00 0.00000000000000000e+00 0.00000000000000000e+00 0.00000000000000000e+00 0.00000000000000000e+00 0.00000000000000000e+00 0.00000000000000000e+00 0.00000000000000000e+00 0.00000000000000000e+00 0.00000000000000000e+00 0.00000000000000000e+00 0.00000000000000000e+00 1.00000000000000000e+00 0.00000000000000000e+00 0.00000000000000000e+00 0.00000000000000000e+00 0.00000000000000000e+00 0.00000000000000000e+00 0.00000000000000000e+00 0.00000000000000000e+00 0.00000000000000000e+00 0.00000000000000000e+00 0.00000000000000000e+00 0.00000000000000000e+00 0.00000000000000000e+00 0.00000000000000000e+00 0.00000000000000000e+00 0.00000000000000000e+00 0.00000000000000000e+00 0.00000000000000000e+00 0.00000000000000000e+00 0.00000000000000000e+00 0.00000000000000000e+00 0.00000000000000000e+00 0.00000000000000000e+00 0.00000000000000000e+00 0.00000000000000000e+00 0.00000000000000000e+00 0.00000000000000000e+00 1.00000000000000000e+00 0.00000000000000000e+00 0.00000000000000000e+00 0.00000000000000000e+00 0.00000000000000000e+00 0.00000000000000000e+00 0.00000000000000000e+00 0.00000000000000000e+00 0.00000000000000000e+00 1.00000000000000000e+00 0.00000000000000000e+00 0.00000000000000000e+00 0.00000000000000000e+00 0.00000000000000000e+00 0.00000000000000000e+00 0.00000000000000000e+00 0.00000000000000000e+00 0.00000000000000000e+00 0.00000000000000000e+00 0.00000000000000000e+00 0.00000000000000000e+00 0.00000000000000000e+00 0.00000000000000000e+00 0.00000000000000000e+00 0.00000000000000000e+00 0.00000000000000000e+00 1.00000000000000000e+00 0.00000000000000000e+00 0.00000000000000000e+00 0.00000000000000000e+00 1.00000000000000000e+00 0.00000000000000000e+00 0.00000000000000000e+00 0.00000000000000000e+00 0.00000000000000000e+00 0.00000000000000000e+00 0.00000000000000000e+00 0.00000000000000000e+00 0.00000000000000000e+00 0.00000000000000000e+00 0.00000000000000000e+00 0.00000000000000000e+00 0.00000000000000000e+00 0.00000000000000000e+00 0.00000000000000000e+00 0.00000000000000000e+00 0.00000000000000000e+00 0.00000000000000000e+00 0.00000000000000000e+00 0.00000000000000000e+00 0.00000000000000000e+00 0.00000000000000000e+00 0.00000000000000000e+00 0.00000000000000000e+00 0.00000000000000000e+00 0.00000000000000000e+00 0.00000000000000000e+00 0.00000000000000000e+00 0.00000000000000000e+00 0.00000000000000000e+00 0.00000000000000000e+00 0.00000000000000000e+00 0.00000000000000000e+00 0.00000000000000000e+00 0.00000000000000000e+00 0.00000000000000000e+00 0.00000000000000000e+00 0.00000000000000000e+00 0.00000000000000000e+00 0.00000000000000000e+00 0.00000000000000000e+00 0.00000000000000000e+00 0.00000000000000000e+00 0.00000000000000000e+00 0.00000000000000000e+00 0.00000000000000000e+00 0.00000000000000000e+00 0.00000000000000000e+00 0.00000000000000000e+00 0.00000000000000000e+00 0.00000000000000000e+00 0.00000000000000000e+00 0.00000000000000000e+00 0.00000000000000000e+00 0.00000000000000000e+00 0.00000000000000000e+00 0.00000000000000000e+00 0.00000000000000000e+00 0.00000000000000000e+00 0.00000000000000000e+00 0.00000000000000000e+00 0.00000000000000000e+00 0.00000000000000000e+00 0.00000000000000000e+00 0.00000000000000000e+00 1.00000000000000000e+00 0.00000000000000000e+00 0.00000000000000000e+00 0.00000000000000000e+00 0.00000000000000000e+00 0.00000000000000000e+00 0.00000000000000000e+00 0.00000000000000000e+00 0.00000000000000000e+00 0.00000000000000000e+00 1.00000000000000000e+00 0.00000000000000000e+00 0.00000000000000000e+00 0.00000000000000000e+00 0.00000000000000000e+00 0.00000000000000000e+00 0.00000000000000000e+00 0.00000000000000000e+00 1.00000000000000000e+00 0.00000000000000000e+00 1.00000000000000000e+00 0.00000000000000000e+00 0.00000000000000000e+00 0.00000000000000000e+00 0.00000000000000000e+00 0.00000000000000000e+00 0.00000000000000000e+00 0.00000000000000000e+00 0.00000000000000000e+00 0.00000000000000000e+00 0.00000000000000000e+00 0.00000000000000000e+00 0.00000000000000000e+00 0.00000000000000000e+00 0.00000000000000000e+00 0.00000000000000000e+00 0.00000000000000000e+00 1.00000000000000000e+00 0.00000000000000000e+00 0.00000000000000000e+00 0.00000000000000000e+00 1.00000000000000000e+00 0.00000000000000000e+00 1.00000000000000000e+00 0.00000000000000000e+00 0.00000000000000000e+00 0.00000000000000000e+00 0.00000000000000000e+00 0.00000000000000000e+00 0.00000000000000000e+00 0.00000000000000000e+00 0.00000000000000000e+00 0.00000000000000000e+00 1.00000000000000000e+00 0.00000000000000000e+00 0.00000000000000000e+00 0.00000000000000000e+00 0.00000000000000000e+00 0.00000000000000000e+00 0.00000000000000000e+00 0.00000000000000000e+00 0.00000000000000000e+00 0.00000000000000000e+00 0.00000000000000000e+00 0.00000000000000000e+00 0.00000000000000000e+00 0.00000000000000000e+00 0.00000000000000000e+00 0.00000000000000000e+00 0.00000000000000000e+00 0.00000000000000000e+00 0.00000000000000000e+00 0.00000000000000000e+00 0.00000000000000000e+00 1.00000000000000000e+00 0.00000000000000000e+00 0.00000000000000000e+00 0.00000000000000000e+00 0.00000000000000000e+00 0.00000000000000000e+00 0.00000000000000000e+00 0.00000000000000000e+00 0.00000000000000000e+00 0.00000000000000000e+00 0.00000000000000000e+00 0.00000000000000000e+00 0.00000000000000000e+00 0.00000000000000000e+00 0.00000000000000000e+00 0.00000000000000000e+00 0.00000000000000000e+00 0.00000000000000000e+00 1.00000000000000000e+00 0.00000000000000000e+00 0.00000000000000000e+00 0.00000000000000000e+00 0.00000000000000000e+00 0.00000000000000000e+00 0.00000000000000000e+00 0.00000000000000000e+00 0.00000000000000000e+00 0.00000000000000000e+00 0.00000000000000000e+00 0.00000000000000000e+00 0.00000000000000000e+00 0.00000000000000000e+00 0.00000000000000000e+00 0.00000000000000000e+00 0.00000000000000000e+00 0.00000000000000000e+00 0.00000000000000000e+00 0.00000000000000000e+00 0.00000000000000000e+00 0.00000000000000000e+00 0.00000000000000000e+00 0.00000000000000000e+00 0.00000000000000000e+00 0.00000000000000000e+00 0.00000000000000000e+00 0.00000000000000000e+00 0.00000000000000000e+00 0.00000000000000000e+00 0.00000000000000000e+00 0.00000000000000000e+00 0.00000000000000000e+00 0.00000000000000000e+00 0.00000000000000000e+00 0.00000000000000000e+00 0.00000000000000000e+00 0.00000000000000000e+00 0.00000000000000000e+00 0.00000000000000000e+00 1.00000000000000000e+00 0.00000000000000000e+00 1.00000000000000000e+00 0.00000000000000000e+00 0.00000000000000000e+00 0.00000000000000000e+00 1.00000000000000000e+00 0.00000000000000000e+00 0.00000000000000000e+00 0.00000000000000000e+00 0.00000000000000000e+00 0.00000000000000000e+00 0.00000000000000000e+00 0.00000000000000000e+00 0.00000000000000000e+00 1.00000000000000000e+00 0.00000000000000000e+00 0.00000000000000000e+00 1.00000000000000000e+00 0.00000000000000000e+00 0.00000000000000000e+00 0.00000000000000000e+00 0.00000000000000000e+00 0.00000000000000000e+00 1.00000000000000000e+00 0.00000000000000000e+00 0.00000000000000000e+00 0.00000000000000000e+00 0.00000000000000000e+00 0.00000000000000000e+00 0.00000000000000000e+00 0.00000000000000000e+00 0.00000000000000000e+00 0.00000000000000000e+00 0.00000000000000000e+00 0.00000000000000000e+00 0.00000000000000000e+00 0.00000000000000000e+00 0.00000000000000000e+00 0.00000000000000000e+00 0.00000000000000000e+00 0.00000000000000000e+00 0.00000000000000000e+00 0.00000000000000000e+00 0.00000000000000000e+00 0.00000000000000000e+00 0.00000000000000000e+00 0.00000000000000000e+00 0.00000000000000000e+00 0.00000000000000000e+00 0.00000000000000000e+00 0.00000000000000000e+00 0.00000000000000000e+00 0.00000000000000000e+00 0.00000000000000000e+00 1.00000000000000000e+00 0.00000000000000000e+00 0.00000000000000000e+00 0.00000000000000000e+00 0.00000000000000000e+00 0.00000000000000000e+00 0.00000000000000000e+00 0.00000000000000000e+00 0.00000000000000000e+00 0.00000000000000000e+00 0.00000000000000000e+00 0.00000000000000000e+00 0.00000000000000000e+00 0.00000000000000000e+00 0.00000000000000000e+00 0.00000000000000000e+00 0.00000000000000000e+00 1.00000000000000000e+00 0.00000000000000000e+00 0.00000000000000000e+00 0.00000000000000000e+00 0.00000000000000000e+00 0.00000000000000000e+00 0.00000000000000000e+00 0.00000000000000000e+00 0.00000000000000000e+00 0.00000000000000000e+00 0.00000000000000000e+00 0.00000000000000000e+00 0.00000000000000000e+00 0.00000000000000000e+00 0.00000000000000000e+00 0.00000000000000000e+00 0.00000000000000000e+00 0.00000000000000000e+00 0.00000000000000000e+00 0.00000000000000000e+00 0.00000000000000000e+00 1.00000000000000000e+00 0.00000000000000000e+00 0.00000000000000000e+00 0.00000000000000000e+00 1.00000000000000000e+00 0.00000000000000000e+00 0.00000000000000000e+00 0.00000000000000000e+00 0.00000000000000000e+00 0.00000000000000000e+00 0.00000000000000000e+00 0.00000000000000000e+00 0.00000000000000000e+00 0.00000000000000000e+00 0.00000000000000000e+00 0.00000000000000000e+00 0.00000000000000000e+00 0.00000000000000000e+00 0.00000000000000000e+00 0.00000000000000000e+00 0.00000000000000000e+00 0.00000000000000000e+00 0.00000000000000000e+00 0.00000000000000000e+00 0.00000000000000000e+00 0.00000000000000000e+00 0.00000000000000000e+00 0.00000000000000000e+00 0.00000000000000000e+00 0.00000000000000000e+00 0.00000000000000000e+00 0.00000000000000000e+00 0.00000000000000000e+00 0.00000000000000000e+00 0.00000000000000000e+00 0.00000000000000000e+00 0.00000000000000000e+00 1.00000000000000000e+00 0.00000000000000000e+00 0.00000000000000000e+00 0.00000000000000000e+00 0.00000000000000000e+00 0.00000000000000000e+00 0.00000000000000000e+00 0.00000000000000000e+00 0.00000000000000000e+00 0.00000000000000000e+00 0.00000000000000000e+00 0.00000000000000000e+00 0.00000000000000000e+00 0.00000000000000000e+00 0.00000000000000000e+00 0.00000000000000000e+00 0.00000000000000000e+00 0.00000000000000000e+00 0.00000000000000000e+00 0.00000000000000000e+00 0.00000000000000000e+00 0.00000000000000000e+00 0.00000000000000000e+00 0.00000000000000000e+00 0.00000000000000000e+00 0.00000000000000000e+00 0.00000000000000000e+00 1.00000000000000000e+00 1.00000000000000000e+00 0.00000000000000000e+00 0.00000000000000000e+00 0.00000000000000000e+00 1.00000000000000000e+00 0.00000000000000000e+00 0.00000000000000000e+00 1.00000000000000000e+00 0.00000000000000000e+00 0.00000000000000000e+00 0.00000000000000000e+00 1.00000000000000000e+00 0.00000000000000000e+00 0.00000000000000000e+00 0.00000000000000000e+00 0.00000000000000000e+00 0.00000000000000000e+00 1.00000000000000000e+00 0.00000000000000000e+00 0.00000000000000000e+00 0.00000000000000000e+00 0.00000000000000000e+00 0.00000000000000000e+00 0.00000000000000000e+00 0.00000000000000000e+00 0.00000000000000000e+00 0.00000000000000000e+00 1.00000000000000000e+00 0.00000000000000000e+00 0.00000000000000000e+00 0.00000000000000000e+00 0.00000000000000000e+00 1.00000000000000000e+00 0.00000000000000000e+00 0.00000000000000000e+00 0.00000000000000000e+00 0.00000000000000000e+00 0.00000000000000000e+00 0.00000000000000000e+00 1.00000000000000000e+00 0.00000000000000000e+00 0.00000000000000000e+00 0.00000000000000000e+00 0.00000000000000000e+00 1.00000000000000000e+00 0.00000000000000000e+00 0.00000000000000000e+00 0.00000000000000000e+00 0.00000000000000000e+00 0.00000000000000000e+00 0.00000000000000000e+00 0.00000000000000000e+00 0.00000000000000000e+00 0.00000000000000000e+00 1.00000000000000000e+00 1.00000000000000000e+00 0.00000000000000000e+00 1.00000000000000000e+00 0.00000000000000000e+00 0.00000000000000000e+00 1.00000000000000000e+00 1.00000000000000000e+00 0.00000000000000000e+00 0.00000000000000000e+00 0.00000000000000000e+00 0.00000000000000000e+00 0.00000000000000000e+00 1.00000000000000000e+00 0.00000000000000000e+00 0.00000000000000000e+00 0.00000000000000000e+00 1.00000000000000000e+00 0.00000000000000000e+00 0.00000000000000000e+00 0.00000000000000000e+00 0.00000000000000000e+00 0.00000000000000000e+00 0.00000000000000000e+00 0.00000000000000000e+00 0.00000000000000000e+00 0.00000000000000000e+00 0.00000000000000000e+00 0.00000000000000000e+00 0.00000000000000000e+00 0.00000000000000000e+00 0.00000000000000000e+00 0.00000000000000000e+00 0.00000000000000000e+00 0.00000000000000000e+00 0.00000000000000000e+00 0.00000000000000000e+00 0.00000000000000000e+00 0.00000000000000000e+00 0.00000000000000000e+00 0.00000000000000000e+00 0.00000000000000000e+00 1.00000000000000000e+00 0.0000000000000000